band_gap,formation_energy_per_atom,nelements,elements,formula,material_id
1.855699999999999,-2.451994453749999,4,"Cd,Mg,O,Si",Mg6CdSiO8,mp-1030850
1.855999999999999,-2.858575855877193,4,"Cr,Li,O,Si",Li2Cr2Si4O11,mp-757623
1.857699999999999,-3.049412681708332,6,"Al,Ho,N,O,Si,Sr",SrHo31Al2Si14N13O59,mp-1173187
1.8577,-2.4130569165464673,6,"Na,O,S,Si,Sn,Zn",Na14Zn2Si9Sn6(SO16)3,mp-2714918
1.8579999999999992,-3.270127240833334,4,"O,Si,Sm,Te",Sm2SiTeO4,mp-17812
1.8582,-2.545918062217199,6,"Ga,Na,Nb,O,S,Si",Na14Nb2Ga6Si9(SO16)3,mp-2714750
1.8598,-2.904018475375,4,"Be,O,Si,V",Be3V2(SiO4)3,mp-1047935
1.859999999999999,-2.577631846764705,5,"Mg,O,Si,V,Zn",MgV2Zn2(SiO5)2,mp-2215850
1.860399999999999,-2.779198182027505,6,"Na,Nb,O,S,Si,Ti",Na2Ti4Nb4Si7S5O48,mp-2715787
1.8606,-2.638683274393939,4,"Al,Li,O,Si",LiAlSi2O7,mp-1191091
1.8612000000000002,-2.779855010373563,6,"Mg,Na,O,S,Si,Ti",Na6MgTi3Si4(SO12)2,mp-2714467
1.861499999999999,-2.482847285333333,4,"Fe,Li,O,Si",Li3Fe2(SiO4)2,mp-850922
1.8618000000000001,-3.129913028124999,4,"Ca,O,Si,V",CaV(Si2O5)2,mp-1043605
1.8621999999999992,-2.770491469750454,6,"La,Na,Nb,O,S,Si",Na2LaNbSi2SO12,mp-2712700
1.8636,-2.798800411352048,6,"Na,O,S,Sc,Si,Ti",Na5Sc3TiSi3(SO8)3,mp-2713487
1.8638,-2.070311625510204,5,"Al,Co,O,Sb,Si",Al4Co13Si2(SbO14)2,mp-1044552
1.8646999999999991,-2.773982958496853,6,"Ca,Na,Nb,O,S,Si",Na8Ca2Nb2Si5SO24,mp-2716171
1.8653,-2.308099887096945,6,"Ca,Ga,Na,O,S,Si",Na4Ca2Ga2SiS5O24,mp-2713474
1.866099999999999,-2.637949893998564,6,"Na,O,S,Si,Sn,Y",Na3YSi2SnSO12,mp-2714584
1.8661,-2.7818021750275053,6,"Na,Nb,O,S,Sc,Si",Na2Sc2Nb6Si7S5O48,mp-2715591
1.8665,-2.7690389227155183,6,"Mg,Na,Nb,O,S,Si",Na3MgNb5Si6(SO12)3,mp-2715664
1.8667,-2.897993192400126,6,"Na,Nb,O,S,Sc,Si",Na14Sc6Nb2Si9(SO16)3,mp-2714857
1.8697,-2.629415770598934,6,"In,Na,Nb,O,S,Si",Na2Nb6In2Si7S5O48,mp-2715782
1.8701,-2.491880234345639,6,"Na,O,S,Si,Ta,Zn",Na10Ta4Zn4Si7S5O48,mp-2714127
1.8711000000000002,-2.6051493784175763,6,"Mg,Na,O,S,Si,Ta",Na15Mg7Ta5Si9(SO8)9,mp-2716569
1.8712,-2.080614760571229,4,"Na,O,Si,Ti",Na4Ti4Si3O22,mp-1202866
1.871699999999999,-2.5871648253888893,4,"Li,O,Si,V",Li4V2SiO8,mp-766040
1.8718,-2.6533961883627333,6,"Mg,Na,O,S,Si,Ta",Na10Mg4Ta4Si7S5O48,mp-2716025
1.8726999999999991,-2.549411578421646,6,"Ca,Ge,Na,O,P,Si",Na5CaSiGe3P5O24,mp-2716026
1.8729,-2.951060322837849,6,"La,Na,O,P,Si,Ti",Na3LaTiSi(PO6)2,mp-2715357
1.8731,-2.438311982666667,5,"Fe,Mg,O,Sb,Si",MgFe2Si2SbO9,mp-2242239
1.8735,-2.749388851284481,5,"Ca,Fe,Na,O,Si",NaCa3Fe4(SiO3)8,mp-684912
1.8739000000000001,-2.678155120326551,6,"Ca,Na,O,S,Si,Ta",Na9Ca5Ta7Si9(SO8)9,mp-2714911
1.874,-2.7383216419182883,6,"Al,Na,O,S,Si,Ti",Na10Ti4Al4Si7S5O48,mp-2715846
1.8748,-2.828841734418289,6,"La,Na,Nb,O,S,Si",Na10La4Nb4Si9(SO16)3,mp-2714214
1.8754,-2.255067191170395,6,"In,Na,O,S,Si,Sn",Na3InSi3Sn3(SO8)3,mp-2716373
1.8760999999999992,-2.949925207343749,4,"Ca,Mg,O,Si",CaMg30SiO32,mp-1038016
1.8764,-2.193027075146552,6,"Al,Ga,Na,O,S,Si",Na2Al4Ga4SiS11O48,mp-2714255
1.8764,-2.767306439708457,6,"Na,O,S,Si,Ta,Y",Na2Y4Ta4Si5S7O48,mp-2716130
1.877199999999999,-2.307275070737296,6,"Ca,In,Na,O,S,Si",Na4Ca2In2SiS5O24,mp-2713130
1.8785,-2.678565732505895,6,"La,Na,O,S,Si,Sn",Na5La3Si3Sn(SO8)3,mp-2713461
1.8798,-2.498177235763888,5,"C,Li,O,Si,V",Li2VSiCO7,mp-770348
1.880599999999999,-3.020343634218751,4,"Mg,O,Si,V",MgV(Si2O5)2,mp-1043519
1.882099999999999,-2.925733434849999,5,"Ca,Fe,H,O,Si",Ca2Fe2Si5HO15,mp-695983
1.8829,-2.695344673696146,5,"Li,O,P,Si,V",Li4V2Si(PO6)2,mp-770503
1.8837000000000002,-2.6186527306177902,4,"Mo,O,P,Si",Si2Mo4P6O25,mp-557690
1.884199999999999,-2.834237834761904,4,"Li,O,Si,V",LiVSiO4,mp-766923
1.8846,-2.722473186855718,6,"Mg,Na,Nb,O,S,Si",Na6Mg2Nb4Si6(SO12)3,mp-2712657
1.885099999999999,-2.8407916439640113,6,"Ca,Na,O,S,Si,Ta",Na6Ca4Ta20Si21(S5O48)3,mp-2715644
1.8873000000000002,-2.9623792220833343,4,"Li,O,Si,V",LiV(SiO3)2,mp-559840
1.8881000000000001,-2.6330783412501972,6,"Ca,Na,O,S,Si,Ta",Na30Ca16Ta8Si15(S7O48)3,mp-2715022
1.8887,-2.701179173339002,5,"Li,O,P,Si,V",Li4V2Si(PO6)2,mp-1177285
1.8904,-2.938337325563179,6,"La,Na,O,P,Si,Ti",Na4LaTiSi2PO12,mp-2715727
1.8920999999999992,-2.876457403684211,4,"Ca,Fe,O,Si",CaFe2(SiO3)4,mp-1171010
1.8932000000000002,-1.951330105906863,5,"Ga,Ge,O,S,Si",Ga2SiGe2S5O24,mp-2713118
1.893599999999999,-2.616896932083333,4,"Li,O,Si,V",Li2VSiO4,mp-766405
1.8949,-2.924650253125,4,"Mg,O,Si,V",Mg30VSiO32,mp-1036736
1.8955000000000002,-2.655667103996462,4,"Fe,Mn,O,Si",Mn2Fe5(SiO3)8,mp-1210841
1.8956,-2.309157164947823,6,"Mg,Na,O,S,Si,Sn",Na4Mg3SiSnS5O24,mp-2713364
1.896799999999999,-2.685311763823528,4,"H,O,Si,U",U2Si(H2O5)2,mp-23994
1.8973,-3.237476242875,4,"Ca,O,Si,V",Ca3V2(SiO4)3,mp-1163934
1.8974000000000002,-3.0236475735,5,"Al,Cd,O,Rb,Si",RbAl3Cd(SiO4)3,mp-677716
1.8974000000000002,-2.639103511071429,3,"O,Si,V",V2SiO4,mp-772047
1.8983999999999992,-2.8992752327151683,5,"Mg,Na,Nb,O,Si",Na7MgNb3(SiO4)6,mp-2712873
1.898499999999999,-2.494897921961023,6,"Mg,Na,O,S,Si,Zr",Na10Mg6Zr2Si3(S3O16)3,mp-2714884
1.8998,-1.948193162333332,3,"O,Si,Sn",Si(Sn3O4)2,mp-556100
1.9010999999999991,-2.449712696472149,5,"C,Na,O,Si,V",Na3VSiCO7,mp-770947
1.902299999999999,-2.757380559761904,4,"Li,O,Si,V",LiVSiO4,mp-766129
1.9025999999999992,-2.672516985416666,4,"Li,O,Si,V",LiVSiO5,mp-763247
1.9035000000000002,-2.627365920000001,5,"Nb,O,S,Sc,Si",ScNbSi(SO6)2,mp-2713368
1.9036,-2.754437174230404,6,"Na,Nb,O,P,Si,Zn",Na6Nb4Zn2Si3(PO6)6,mp-2712666
1.903699999999999,-3.107696011951754,4,"H,Mg,O,Si",Mg16Si8HO32,mp-1248719
1.904099999999999,-2.48023140797619,4,"Fe,Li,O,Si",LiFeSiO4,mp-758596
1.9043,-2.800782312096946,6,"Na,Nb,O,S,Si,Y",Na4Y3NbSi3(SO8)3,mp-2713691
1.9051,-2.36380893644237,6,"In,Na,O,S,Sc,Si",Na2Sc2In2SiS5O24,mp-2714603
1.9055,-3.100779451341829,4,"Ca,Mn,O,Si",Ca3Mn2(Si2O7)2,mp-557275
1.905799999999999,-1.920433067142857,4,"Fe,Li,O,Si",Li15Fe15SiO32,mp-1178074
1.9058000000000002,-2.912831513650126,5,"Ca,Na,Nb,O,Si",Na7CaNb3(SiO4)6,mp-2712957
1.9059,-2.481728865379827,6,"Al,Ge,Na,O,S,Si",Na10Al4Si7Ge4S5O48,mp-2715922
1.9065,-3.108552013823529,2,"O,Si",SiO2,mp-1245026
1.906699999999999,-2.624104785546181,6,"In,Na,Nb,O,P,Si",Na6NbIn3Si2(PO6)4,mp-2715383
1.908799999999999,-2.38486471954023,6,"Mg,Na,O,S,Si,Sn",Na6Mg3Si2Sn(SO6)4,mp-2712579
1.9098000000000002,-2.785663069694171,6,"Na,Nb,O,S,Si,Y",Na2Y2Nb6Si7S5O48,mp-2715574
1.9122,-2.652135720327506,6,"Al,Na,O,S,Si,Ta",Na2Ta4Al4Si5S7O48,mp-2716133
1.912999999999999,-2.034202100196079,5,"Ge,O,S,Si,Sn",SiSnGe(SO6)2,mp-2713382
1.9158,-2.520697558982782,6,"Mg,Na,O,S,Si,Ta",Na42Mg20Ta4Si15(S7O48)3,mp-2715931
1.917,-2.83991715956737,6,"Na,Nb,O,S,Si,Y",Na2YNb3Si4(SO12)2,mp-2715697
1.9182000000000001,-2.596939987941176,5,"Mg,O,Si,V,Zn",MgV2Zn2(SiO5)2,mp-2215933
1.9185,-2.007376103575124,5,"Ga,Na,O,S,Si",Na2Ga8SiS11O48,mp-2714087
1.9197000000000002,-2.639490344479886,6,"Ga,Na,Nb,O,S,Si",Na2Nb6Ga2Si7S5O48,mp-2715594
1.9216000000000002,-2.573017265006108,6,"Ca,Ge,Na,O,P,Si",Na7CaSi3Ge3(PO8)3,mp-2715030
1.9225,-2.9458596215,4,"Cr,Mg,O,Si",MgCr(SiO3)2,mp-1210737
1.924399999999999,-2.4052758448625,4,"Fe,K,O,Si",KFe4(SiO4)3,mp-1223588
1.9246999999999992,-2.4214394898349543,6,"Ga,Na,O,S,Si,Ti",Na5TiGa3Si3(SO8)3,mp-2713489
1.9251,-1.499916862357142,3,"H,O,Si",Si2H2O3,mp-627141
1.925999999999999,-2.324843376666666,3,"Fe,O,Si",Fe7(SiO4)4,mp-1197365
1.9260000000000002,-2.822061550444171,6,"Na,O,S,Si,Ta,Y",Na2Y3Ta5Si6(SO8)6,mp-2713943
1.9263,-2.648367861176471,5,"Ca,O,Si,V,Zn",CaV2Zn2(SiO5)2,mp-1234637
1.927899999999999,-3.06451681890086,4,"Na,O,Si,U",Na2USiO6,mp-560004
1.9295,-2.681000550786208,3,"Mn,O,Si",MnSiO3,mp-1181218
1.9303000000000001,-2.761650467619048,4,"Li,O,Si,V",LiVSiO4,mp-756653
1.9307,-2.314318699999999,5,"Ca,H,O,Si,U",CaU2Si2H12O17,mp-730691
1.933199999999999,-2.942717447011205,5,"K,Nb,O,P,Si",K4Nb8Si(P2O17)2,mp-14873
1.9335,-2.459254744479167,5,"Ge,Li,O,Si,V",Li2V2SiGeO10,mp-766106
1.9359000000000002,-2.455223545021552,5,"C,Na,O,Si,V",Na2VSiCO7,mp-772154
1.9364000000000001,-3.4684068836190463,4,"O,Si,Sr,Ti",Sr4Ti5(Si2O11)2,mp-558553
1.9374000000000002,-2.287951441999999,5,"Fe,Mg,O,Sb,Si",MgFe2Si2SbO9,mp-2226934
1.9381,-2.7020560576247172,5,"Li,O,P,Si,V",Li4V2Si(PO6)2,mp-777857
1.939099999999999,-2.367179905629855,6,"Ge,Na,O,S,Sc,Si",Na3ScSi3Ge3(SO8)3,mp-2716574
1.9393,-2.814380971091566,6,"La,Na,Nb,O,S,Si",Na6La4Nb4Si7S5O48,mp-2713048
1.9397000000000002,-2.77776151078941,6,"La,Na,Nb,O,S,Si",Na2La2Nb6Si7S5O48,mp-2715785
1.9403000000000001,-2.7068073880164443,6,"Ga,Na,Nb,O,S,Si",Na2Nb3GaSi4(SO12)2,mp-2715698
1.9403000000000001,-2.257768859355717,6,"Na,Nb,O,S,Si,Zn",Na6Nb2Zn4Si3(SO6)6,mp-2713655
1.9404000000000001,-2.688012354087092,6,"Na,O,S,Si,Sn,Y",Na5Y3Si3Sn(SO8)3,mp-2716447
1.940599999999999,-2.334623950374999,3,"Fe,O,Si",Fe5(SiO4)3,mp-1198345
1.9420000000000002,-2.482973830666666,4,"Fe,Li,O,Si",Li3Fe2(SiO4)2,mp-778622
1.9420000000000002,-2.894720647991009,6,"Ca,Na,Nb,O,P,Si",Na21Ca4Nb8Si15(PO24)3,mp-2714458
1.9425,-2.86323440255553,6,"La,Na,Nb,O,S,Si",Na6La2Nb6Si9(SO16)3,mp-2713082
1.9459,-2.909698021746068,6,"La,Na,Nb,O,S,Si",Na4LaNb3Si5SO24,mp-2715126
1.9461,-2.731484702173912,4,"Mg,O,Sb,Si",Mg3Si4(SbO7)2,mp-1249986
1.9465,-2.949417962396005,6,"Ca,Na,O,P,Si,Ti",Na5CaTi3SiP5O24,mp-2715849
1.9467,-2.763605015821155,6,"Na,O,S,Si,Ta,Zn",Na6Ta20Zn4Si21(S5O48)3,mp-2715737
1.947899999999999,-2.488787836895379,6,"Na,O,P,Si,Sn,Zn",Na4ZnSiSn(PO6)2,mp-2714367
1.9495,-2.702703932081897,6,"Na,O,S,Si,Ti,Zn",Na6Ti3ZnSi4(SO12)2,mp-2714352
1.9498000000000002,-2.460749209047617,4,"Fe,Li,O,Si",LiFeSiO4,mp-758977
1.950899999999999,-2.932825974999999,5,"Ba,Mg,O,Si,V",Ba2MgV2(Si2O7)2,mp-1233916
1.951,-2.849359281626773,6,"Na,O,P,Si,Ti,Zn",Na5Ti3ZnSiP5O24,mp-2716098
1.9515000000000002,-2.425933910797102,4,"Co,Li,O,Si",Li10Co(SiO5)2,mp-763575
1.9518,-2.486629877440776,6,"Mg,Na,O,S,Si,Sn",Na14Mg2Si9Sn6(SO16)3,mp-2714787
1.9527,-2.91412392953125,4,"Mg,O,Si,Zn",Mg30ZnSiO32,mp-1037343
1.9532,-2.729995615347063,6,"Na,O,S,Si,Ta,Zn",Na30Ta16Zn8Si27(SO16)9,mp-2714222
1.9546000000000001,-3.051494560173611,4,"Li,O,Si,V",Li2V(Si2O5)3,mp-775292
1.9547999999999992,-2.683051064291666,5,"H,Li,O,Si,V",LiVSi4(HO6)2,mp-1256989
1.955099999999999,-2.463378457806631,6,"Ge,Mg,Na,O,S,Si",Na14Mg2Si9Ge6(SO16)3,mp-2714621
1.955999999999999,-2.28258545055811,6,"In,Na,O,S,Si,Ta",Na2TaIn3Si2(SO6)4,mp-2712554
1.9567,-2.48230799031389,6,"Na,O,P,Si,Sn,Zn",Na7Zn2SiSn2P5O24,mp-2715660
1.956999999999999,-1.9817721417892151,5,"Ga,O,S,Si,Sn",Ga2SiSn2S5O24,mp-2713010
1.9583,-2.827963887021073,6,"La,Na,Nb,O,S,Si",Na2LaNb3Si4(SO12)2,mp-2715600
1.960999999999999,-2.82550500382289,6,"Al,Na,O,S,Si,Ti",Na14Ti4Al4Si9(SO16)3,mp-2715107
1.9628,-2.895651512440777,6,"Na,Nb,O,S,Si,Y",Na14Y6Nb2Si9(SO16)3,mp-2714742
1.9645000000000001,-2.992599060686603,6,"La,Na,O,P,Si,Ti",Na5La2Ti2SiP5O24,mp-2716079
1.9646000000000001,-2.13649271116523,6,"Ge,Na,O,S,Si,Zn",Na6Zn3Si2Ge(SO6)4,mp-2712616
1.9647000000000001,-2.931797405943013,6,"Mg,Na,O,P,Si,Ti",Na5MgTi3SiP5O24,mp-2714047
1.9651,-2.702138206553289,5,"Li,O,P,Si,V",Li4V2Si(PO6)2,mp-770190
1.9652999999999992,-2.709728536002555,6,"Na,O,S,Sc,Si,Ti",NaScTiSi(SO6)2,mp-2712602
1.9659,-2.9105674590501502,6,"Ca,Na,Nb,O,P,Si",Na9Ca2Nb4Si6(PO12)3,mp-2715273
1.965999999999999,-2.871875582914614,6,"Mg,Na,Nb,O,P,Si",Na6Mg2Nb4Si3(PO6)6,mp-2712711
1.9667000000000001,-2.700836067862812,5,"Li,O,P,Si,V",Li4V2Si(PO6)2,mp-1255615
1.9675,-2.66222830729222,6,"Ge,La,Na,O,S,Si",Na5La3Si3Ge(SO8)3,mp-2716455
1.968,-2.8702162127206963,6,"Na,O,S,Si,Ta,Zn",Na18Ta20Zn4Si27(SO16)9,mp-2713065
1.9696999999999991,-2.892147339736842,4,"Mg,O,Si,V",MgV2(SiO3)4,mp-2230369
1.9727000000000001,-2.446329146592091,6,"Ca,Ga,Na,O,S,Si",Na8Ca2Ga2Si3(SO8)3,mp-2714959
1.9734,-2.690943354474777,6,"In,Na,Nb,O,S,Si",Na2Nb3InSi4(SO12)2,mp-2715579
1.9737,-1.492503905928571,3,"H,O,Si",Si2H2O3,mp-1261785
1.973999999999999,-2.558884752938653,6,"Mg,Na,O,S,Si,Ta",Na24Mg10Ta2Si9(SO8)9,mp-2715164
1.976,-2.006832421854838,3,"O,Pb,Si",Si3Pb11O17,mp-1198381
1.976499999999999,-2.9169250080926723,4,"Mg,Mn,O,Si",Mg30MnSiO32,mp-1038035
1.976999999999999,-2.429344390131579,4,"Al,Fe,O,Si",AlFe3(SiO4)3,mp-1250723
1.979,-2.877997141974749,6,"Mg,Na,Nb,O,P,Si",Na21Mg4Nb8Si15(PO24)3,mp-2714327
1.9804,-2.692015649951315,6,"Na,O,S,Sc,Si,Ta",Na2Sc6Ta2Si3(S3O16)3,mp-2716452
1.9805000000000001,-2.756949564296182,6,"La,Na,O,P,Si,Sn",Na3LaSiSn(PO6)2,mp-2715260
1.981999999999999,-2.680341299895759,6,"Ca,Na,O,S,Si,Ta",Na6Ca8Ta16Si15(S7O48)3,mp-2716145
1.982000000000001,-2.055365579123711,5,"Al,La,N,O,Si",La13Al12Si18(N13O5)3,mp-1265516
1.982699999999999,-3.118797368260868,5,"Ca,O,Si,Sr,V",Sr2CaV2(Si2O7)2,mp-1233044
1.9835,-2.4896386976388882,5,"C,Li,O,Si,V",Li2VSiCO7,mp-772542
1.984,-2.849273822516579,6,"Na,Nb,O,S,Si,Zn",Na30Nb20Zn4Si33(SO48)3,mp-2716457
1.984,-2.869527691505818,6,"La,Na,Nb,O,S,Si",Na14La6Nb2Si9(SO16)3,mp-2714935
1.984999999999999,-2.765822652188744,6,"Mg,Na,O,S,Si,Ta",Na14Mg4Ta4Si9(SO16)3,mp-2715179
1.9856,-2.784897042140805,6,"In,Na,Nb,O,S,Si",Na4Nb3InSi5SO24,mp-2715176
1.9857,-2.458022600729166,5,"Ge,Li,O,Si,V",Li2V2SiGeO10,mp-765775
1.9857,-2.72937746118774,6,"Ca,Na,O,S,Si,Zr",Na2CaZr3Si2(SO6)4,mp-2712626
1.9857,-2.8037625624999993,3,"La,O,Si",La2Si2O7,mp-706477
1.9867,-2.382437736805554,3,"O,Si,W",SiWO4,mp-1249282
1.9868000000000001,-2.299608546908456,6,"In,Na,O,S,Sc,Si",Na2Sc4In4SiS11O48,mp-2714217
1.986899999999999,-2.719772165760839,6,"La,Na,O,S,Si,Ta",Na2La6Ta2Si3(S3O16)3,mp-2716514
1.986899999999999,-2.807687968039409,6,"La,Na,O,S,Si,Ta",Na2La3Ta5Si6(SO8)6,mp-2713818
1.987299999999999,-2.511002564015561,6,"Ge,Na,O,P,Si,Zn",Na8ZnSi4Ge3(PO12)2,mp-2715549
1.9883000000000002,-2.78480559784256,6,"La,Na,Nb,O,S,Si",Na4La3NbSi3(SO8)3,mp-2713700
1.988499999999999,-2.594300529408867,3,"Mn,O,Si",Mn2SiO4,mp-18928
1.989399999999999,-2.337572673177505,6,"Ge,Na,O,S,Si,Ta",NaTaSi3Ge3(SO8)3,mp-2713765
1.9894999999999992,-3.238361179322034,5,"Al,Cu,Mg,O,Si",Mg4Al9Cu(SiO4)9,mp-695202
1.9897,-2.498250521547618,4,"Fe,Li,O,Si",LiFeSiO4,mp-861542
1.990299999999999,-2.863979490625,4,"Ca,Co,O,Si",Ca3Co2(SiO4)3,mp-1163930
1.9923000000000002,-2.513338390077519,4,"Fe,Li,O,Si",Li7Fe6(SiO4)6,mp-1176885
1.9929000000000001,-2.718935493159551,6,"Ca,Na,O,S,Si,Ti",Na4CaTiSi2SO12,mp-2714360
1.9934,-2.941271287640806,4,"Ba,Mn,O,Si",Ba2Mn2Si2O9,mp-558695
1.9944000000000002,-2.926032079246068,6,"Na,Nb,O,S,Si,Y",Na4YNb3Si5SO24,mp-2715183
1.9944000000000002,-2.406040768332558,6,"Na,O,S,Sc,Si,Sn",Na3ScSi3Sn3(SO8)3,mp-2716407
1.9957999999999991,-2.6445807461526183,6,"Ca,Na,O,S,Si,Ta",Na15Ca7Ta5Si9(SO8)9,mp-2713147
1.9958,-2.773898368402777,2,"O,Si",SiO2,mp-561301
1.9961000000000002,-2.507166292857142,3,"Cr,O,Si",Cr2SiO4,mp-18800
1.9965000000000002,-2.816680628921183,6,"Mg,Na,Nb,O,P,Si",Na3MgNbSi(PO6)2,mp-2715386
1.996999999999999,-2.866096272922562,6,"Na,Nb,O,S,Si,Y",Na10Y4Nb4Si9(SO16)3,mp-2714235
1.9971,-2.93115855018904,6,"La,Na,Nb,O,P,Si",Na3LaNbSi2PO12,mp-2715495
1.9980000000000002,-2.699860265994971,4,"Fe,Na,O,Si",NaFe2(Si2O5)3,mp-818474
1.998599999999999,-2.66850431875,4,"Cr,O,Si,Zn",ZnCr(SiO3)2,mp-1041856
1.9993,-2.476399963754515,6,"Ge,In,Na,O,P,Si",Na3InSiGe(PO6)2,mp-2715340
2.0002,-2.426716405784315,5,"Ge,Hf,O,S,Si",HfSiGe(SO6)2,mp-2713402
2.0003,-2.61337277017157,5,"O,S,Si,Ti,Y",Y2Ti2SiS5O24,mp-2713019
2.001,-1.741977559151517,4,"Bi,O,Si,V",VSi3Bi61O100,mp-1217882
2.0015,-2.422873519057972,4,"Co,Li,O,Si",Li10Co(SiO5)2,mp-1250597
2.0017,-2.88691693790134,5,"Na,Nb,O,Si,Zn",Na9Nb5Zn(SiO4)9,mp-2715373
2.0022,-2.046368452096946,6,"Na,O,S,Si,Sn,Zn",Na4Zn3SiSnS5O24,mp-2713166
2.003,-2.765930212961139,5,"Na,Nb,O,Si,Zn",Na12Nb4Zn2(SiO4)9,mp-2716563
2.0053,-2.547889482561063,6,"In,Na,O,S,Si,Y",Na6Y2In2Si3(SO8)3,mp-2716229
2.0097,-2.9317497244137742,6,"La,Na,Nb,O,P,Si",Na7La2Nb2Si5PO24,mp-2714602
2.0109,-2.022437162043009,4,"Fe,Li,O,Si",Li7Fe7SiO16,mp-756994
2.011399999999999,-2.6848982112499993,4,"O,Si,W,Zn",ZnSi4WO10,mp-1043629
2.0116,-2.7015946153628123,5,"Li,O,P,Si,V",Li4V2Si(PO6)2,mp-1177241
2.012499999999999,-2.843947314113218,6,"Na,O,S,Si,Ta,Ti",Na2Ta4Ti4Si7S5O48,mp-2715622
2.013,-2.5097972271527773,4,"Fe,Li,O,Si",LiFe2Si2O7,mp-780866
2.014199999999999,-2.58997764290445,6,"Ca,Ge,Na,O,P,Si",Na8CaSi4Ge3(PO12)2,mp-2716143
2.014399999999999,-2.820339922229886,6,"Na,O,S,Sc,Si,Ta",Na2Sc3Ta5Si6(SO8)6,mp-2713846
2.0151,-2.6759936898798022,6,"Ga,Na,O,S,Si,Ti",Na14Ti4Ga4Si9(SO16)3,mp-2715026
2.0152,-2.239368545784647,6,"Ga,Na,O,S,Si,Ta",Na2Ta2Ga6Si3(S3O16)3,mp-2716464
2.0159,-2.853562420313889,6,"Mg,Na,O,P,Si,Ti",Na7Mg2Ti2SiP5O24,mp-2715593
2.016399999999999,-3.042883298913043,5,"Ba,Mg,O,Si,V",Ba2MgV2(Si2O7)2,mp-1233374
2.0164,-2.57348610909256,6,"Ca,Na,Nb,O,S,Si",Na6Ca4Nb2Si3(SO6)6,mp-2713284
2.016599999999999,-2.637772227505895,6,"Al,Na,Nb,O,S,Si",Na10NbAl7Si6(SO8)6,mp-2713455
2.017099999999999,-1.471494036357142,3,"H,O,Si",Si2H2O3,mp-626977
2.0172,-2.543608116875,4,"Cr,Mg,O,Si",Mg6CrSiO8,mp-1030883
2.0199,-2.6171514958333333,4,"Li,O,Si,V",Li2VSiO4,mp-753346
2.0213,-2.810780224690163,6,"Mg,Na,Nb,O,P,Si",Na4MgNbSi2PO12,mp-2715764
2.0222,-3.114831572608696,5,"Ba,Ca,O,Si,V",Ba2CaV2(Si2O7)2,mp-1233385
2.0223,-2.606208744173852,6,"Hf,Na,O,S,Si,Sn",Na2Hf2Si3Sn2(SO8)3,mp-2713196
2.0237,-2.44658676448571,6,"In,Na,O,S,Si,Ta",Na6Ta3In5Si6(SO8)6,mp-2716329
2.0242,-2.491971166022384,6,"Mg,Na,Nb,O,S,Si",Na6Mg4Nb2Si3(SO6)6,mp-2713682
2.027,-2.7752577208333333,4,"Li,O,Si,V",LiVSiO4,mp-766099
2.0275,-2.659040877482758,5,"Al,Cs,Fe,O,Si",CsAlFe3(SiO4)3,mp-1226105
2.0276,-2.307978900955883,5,"O,S,Sc,Si,Sn",Sc2SiSn2S5O24,mp-2712844
2.0285,-2.306297691622743,6,"Ga,Na,O,S,Sc,Si",Na2Sc4Ga4SiS11O48,mp-2714050
2.0289,-2.644441937632353,5,"In,O,S,Si,Ta",Ta3InSi3(SO8)3,mp-2713797
2.029,-2.8525304656724852,6,"Ca,Na,Nb,O,S,Si",Na42Ca8Nb16Si33(SO48)3,mp-2714459
2.0305,-2.885644913244594,6,"Mg,Na,Nb,O,P,Si",Na9Mg2Nb4Si6(PO12)3,mp-2713237
2.030599999999999,-2.394458851314314,6,"In,Mg,Na,O,S,Si",Na8Mg2In2Si3(SO8)3,mp-2715216
2.0315,-2.439893546598933,6,"Hf,In,Na,O,S,Si",Na2Hf4In4Si3(S3O16)3,mp-2716435
2.0321,-2.985206153704088,6,"Na,Nb,O,P,Si,Y",Na2YNbSi(PO6)2,mp-2712576
2.0323,-2.85160941173665,6,"Mg,Na,O,P,Si,Ti",Na4MgTiSi(PO6)2,mp-2714354
2.0335,-2.553511159635417,4,"Fe,Li,O,Si",Li5Fe(SiO4)2,mp-759270
2.0338,-2.599121163520852,6,"In,Na,Nb,O,S,Si",Na10Nb4In4Si9(SO16)3,mp-2714213
2.034,-2.942509723989848,6,"Ca,Na,O,P,Si,Ti",Na7CaTi3Si3(PO8)3,mp-2714908
2.0341,-2.750338342756077,6,"La,Na,O,S,Si,Ta",Na2La4Ta4Si5S7O48,mp-2716276
2.0349,-2.958331093627602,6,"Na,O,S,Si,Ta,Ti",Na6Ta4Ti4Si9(SO16)3,mp-2713018
2.0386,-2.609816336522557,4,"O,P,Rh,Si",Si2P3RhO13,mp-1219334
2.0401,-2.220261511589285,4,"Cd,O,P,Si",Cd5Si(PO6)2,mp-1227191
2.040399999999999,-2.375675447498564,6,"In,Na,O,S,Si,Sn",Na3InSi2SnSO12,mp-2714449
2.0405,-2.620476665796182,6,"Ca,Na,O,P,Si,Sn",Na6CaSi2Sn3(PO6)4,mp-2715348
2.041,-2.990388906527778,4,"Li,O,Si,V",Li2V(Si2O5)3,mp-767777
2.041,-2.827332989822496,5,"K,Li,Mn,O,Si",KLiMn2(SiO3)4,mp-1189006
2.0434,-2.7439643487037033,4,"Li,O,Si,V",Li2V3Si3O10,mp-767778
2.0447,-2.405165244979886,6,"In,Na,O,S,Si,Zr",Na2Zr4In4Si3(S3O16)3,mp-2716501
2.0453,-2.836897925078053,6,"Al,Na,Nb,O,S,Si",Na6Nb6Al2Si9(SO16)3,mp-2712990
2.0453,-2.5642347619766923,6,"Mg,Na,O,S,Si,Ta",Na30Mg16Ta8Si15(S7O48)3,mp-2715025
2.0468,-2.592148332831259,6,"Ca,Na,O,S,Si,Zr",Na2Ca2Zr2SiS5O24,mp-2714489
2.0477,-3.272833390208333,4,"Nd,O,Si,Te",Nd2SiTeO4,mp-18542
2.049,-2.780483880022371,6,"Na,Nb,O,P,Si,Zn",Na9Nb4Zn2Si6(PO12)3,mp-2713303
2.0499,-3.089704640260724,6,"Al,Ba,Na,O,Rb,Si",Rb8BaNaAl11Si13O48,mp-695608
2.0505,-2.996451293171183,6,"Na,O,P,Si,Ti,Y",Na3YTiSi(PO6)2,mp-2715267
2.050799999999999,-2.29255037422598,6,"Ge,In,Na,O,S,Si",Na10In4Si7Ge4S5O48,mp-2715837
2.0513,-2.999751579999999,4,"Mg,O,Si,V",Mg3V2(Si2O7)2,mp-1250648
2.0519,-2.6935381300712953,6,"Al,Na,O,S,Si,Ta",Na6Ta3Al5Si6(SO8)6,mp-2714792
2.0535,-1.469382152499999,3,"H,O,Si",Si2H2O3,mp-1179458
2.0555,-2.785235945957171,6,"Na,O,S,Si,Ti,Zn",Na8Ti3ZnSi5SO24,mp-2716167
2.0557,-3.001443728000215,7,"Fe,K,Li,Na,O,Si,Ti",KNa2LiTi2Fe2(SiO3)8,mp-510635