band_gap,formation_energy_per_atom,nelements,elements,formula,material_id
0.9215000000000001,-2.644904801065037,6,"Ca,F,Mg,Na,O,Si",Na3Ca2Mg10Si16(O11F)4,mp-1173853
0.921899999999999,-2.925857397291666,2,"O,Si",SiO2,mp-34150
0.922199999999999,-2.693563550911329,4,"Cu,Na,O,Si",Na2CuSi3O8,mp-557123
0.9225999999999991,-2.25174422331737,6,"In,Na,Nb,O,S,Si",Na2NbIn3Si2(SO6)4,mp-2712725
0.9231,-2.311474745119048,4,"Co,Li,O,Si",LiCoSiO4,mp-758471
0.9252,-2.3899927792903712,6,"Na,Nb,O,S,Si,Zn",Na42Nb8Zn16Si21(S5O48)3,mp-2715798
0.9254000000000001,-2.466882238695652,4,"Mo,O,Si,Zn",Zn3Si4(MoO7)2,mp-1047015
0.9258000000000001,-1.107103575753425,5,"C,N,O,Si,W",SiW12C16(NO10)4,mp-1179556
0.926,-2.962708942318841,5,"Ba,Li,O,Si,V",Ba2LiV2(Si2O7)2,mp-1235096
0.9269000000000001,-2.792705247948718,4,"Li,O,Si,V",LiV2(SiO4)2,mp-762820
0.9272,-2.552194416790083,6,"Ca,Na,O,S,Si,Ti",Na10Ca6Ti2Si3(S3O16)3,mp-2714702
0.9283000000000001,-2.431816764439655,6,"Ca,Na,O,S,Si,Sn",Na10Ca6Si3Sn2(S3O16)3,mp-2714785
0.9287999999999991,-2.520094214722222,4,"Co,Li,O,Si",Li3Co2Si3O10,mp-1267688
0.9289000000000001,-2.809672813001437,4,"Li,Mn,O,Si",LiMn(SiO3)2,mp-757866
0.9314,-2.587720123861836,6,"Ca,Na,Nb,O,S,Si",Na6Ca4Nb4Si5S7O48,mp-2715955
0.9316000000000001,-2.280443227645619,6,"Ca,Na,O,S,Si,Sn",Na6Ca2Si5Sn6S7O48,mp-2716084
0.933,-2.760956138589743,4,"Mg,O,Si,Ti",MgTi2(SiO4)2,mp-2219002
0.9331,-2.283193923464695,4,"Al,Na,O,Si",Na2Al2Si3O14,mp-1202442
0.9335,-1.979339205194171,5,"In,Na,O,S,Si",Na2In8SiS11O48,mp-2714314
0.9357000000000001,-2.618984051639527,5,"Al,H,Na,O,Si",Na4Al3Si3H3O14,mp-1173789
0.9364999999999991,-3.104532008312499,4,"K,Nd,O,Si",K8Nd3(Si4O11)3,mp-1224625
0.9398000000000001,-1.9567284895833341,3,"Co,O,Si",CoSiO4,mp-25268
0.9403,-2.488536495238095,4,"Fe,Li,O,Si",LiFeSiO4,mp-767248
0.9416,-2.6628267577807563,6,"Ca,Na,O,S,Si,Ti",Na6Ca2Ti6Si5S7O48,mp-2716037
0.9419000000000001,-2.617757443803879,4,"Mg,Mn,O,Si",MgMnSiO5,mp-1293053
0.9435000000000001,-2.132362993809523,3,"Fe,O,Si",Fe2SiO4,mp-675586
0.9436999999999991,-2.599861081339824,6,"Ca,Ge,Na,O,P,Si",Na4CaSiGe(PO6)2,mp-2714587
0.9439000000000001,-2.043646254278351,5,"Al,La,N,O,Si",La13Al12Si18(N13O5)3,mp-695367
0.9441,-2.355611872196079,5,"In,O,S,Si,Ta",TaInSi(SO6)2,mp-2713531
0.9449000000000001,-2.221756496658349,6,"Ge,In,Na,O,S,Si",Na4In2Si3Ge2(SO8)3,mp-2713543
0.9450000000000001,-2.552748557174698,6,"La,Na,O,S,Si,Sn",Na10La4Si7Sn4S5O48,mp-2715926
0.947099999999999,-2.421838833259804,5,"Nb,O,S,Si,Sn",Nb2Si3Sn2(SO8)3,mp-2714018
0.9473,-2.842744940999999,3,"Ba,O,Si",BaSiO3,mp-1016821
0.948299999999999,-2.817881125484914,4,"Na,O,Si,Zr",Na2ZrSi3O10,mp-1210886
0.9502,-2.545864185693436,6,"Na,O,S,Sc,Si,Sn",Na4Sc2Si3Sn2(SO8)3,mp-2713649
0.9512,-2.497077373666666,4,"Fe,Li,O,Si",Li3Fe2(SiO4)2,mp-764102
0.9539000000000001,-2.618170569729406,6,"Mg,Na,Nb,O,S,Si",Na6Mg4Nb8Si9(SO8)9,mp-2713484
0.9558000000000001,-2.8608769303703703,4,"Cr,Li,O,Si",Li2CrSi4O11,mp-757933
0.9564,-2.6307293325,4,"Al,Mg,O,Si",Mg6AlSiO8,mp-1031567
0.9577,-2.33603109172598,6,"Mg,Na,O,S,Si,Sn",Na10Mg4Si5Sn4S7O48,mp-2715113
0.9579000000000001,-3.029232922847223,2,"O,Si",SiO2,mp-667448
0.9582,-2.529972631666665,5,"Ca,H,O,Si,U",CaU2Si2(HO3)4,mp-1214481
0.9584,-2.458598246156188,3,"Mn,O,Si",Mn5(SiO5)2,mp-1198989
0.9586999999999991,-2.56729011089491,4,"Li,Mn,O,Si",LiMnSiO4,mp-753095
0.9587999999999991,-2.657806537682266,6,"Ca,Na,Nb,O,S,Si",NaCaNb3Si3(SO8)3,mp-2713806
0.9597000000000001,-2.786334691127451,4,"Cu,Li,O,Si",Li2Cu(Si2O5)2,mp-1262892
0.96,-2.087199070313219,6,"Ge,Mg,Na,O,S,Si",Na2Mg2Si3Ge6(S3O16)3,mp-2716389
0.9602,-2.789845168141443,6,"In,Na,O,S,Si,Ta",Na2Ta3InSi4(SO12)2,mp-2715668
0.9625999999999991,-2.173921168051026,6,"Na,O,S,Si,Sn,Zn",Na6Zn2Si5Sn6S7O48,mp-2716038
0.9649999999999991,-2.239673681190477,4,"Co,Li,O,Si",LiCoSiO4,mp-758199
0.9652000000000001,-1.867056463043478,5,"Al,H,N,O,Si",Al2Si2H8N2O9,mp-1199231
0.9658000000000001,-2.504528096798029,5,"Mn,O,Sb,Si,Y",Y4Mn13Si2(SbO14)2,mp-1044607
0.966,-2.357392585168142,6,"Ca,Na,O,S,Si,Sn",Na6Ca6SiSn2S11O48,mp-2713261
0.9679000000000001,-2.028223059444443,3,"Cd,O,Si",Cd3SiO5,mp-13820
0.9687000000000001,-2.5511933320504463,5,"K,Mn,O,Si,Zn",K2Mn2Zn4Si4O15,mp-554911
0.9697,-2.20326144514562,6,"Na,Nb,O,S,Si,Zn",Na18Nb8Zn16Si9(S3O16)9,mp-2713828
0.971299999999999,-2.11867546354218,6,"Ca,Fe,H,Mn,O,Si",Ca2MnFeSi4(HO3)5,mp-721172
0.9716000000000001,-3.088115564285714,5,"Al,Cu,F,O,Si",Al2CuSi2O7F2,mp-557084
0.9718,-2.699016319914592,6,"La,Na,Nb,O,S,Si",Na2La2Nb2Si3(SO8)3,mp-2713390
0.9720000000000001,-0.263277667918317,5,"C,H,K,O,Si",KSi7H62C25O6,mp-1199586
0.974399999999999,-2.0505295152656,6,"In,Na,O,S,Si,Sn",Na2In4Si3Sn4(S3O16)3,mp-2716301
0.977399999999999,-2.639832630322288,6,"Ca,H,K,Mg,O,Si",K3Ca2Mg10Si16(HO12)4,mp-1260618
0.9794,-2.643214989932949,4,"Li,Mn,O,Si",LiMn2Si2O7,mp-754573
0.9821000000000001,-2.453307083333333,4,"Fe,Li,O,Si",Li4Fe3(SiO4)3,mp-778793
0.9832999999999991,-2.8956071800379863,5,"Cs,K,O,Si,Zr",Cs3KZr2(Si3O10)2,mp-1226678
0.984599999999999,-2.779587650686274,4,"Cu,Li,O,Si",Li2Cu(Si2O5)2,mp-757101
0.9868,-1.927760468999999,5,"Cu,F,H,O,Si",CuSiH8(O2F3)2,mp-703531
0.9872999999999991,-2.48379963962019,4,"Li,Mn,O,Si",Li10Mn(SiO5)2,mp-780653
0.9888999999999991,-2.165350534,2,"O,Si",Si2O3,mp-1179195
0.9906,-2.619624139823482,4,"Li,Mn,O,Si",LiMnSiO4,mp-780533
0.9950000000000001,-2.28008985675,4,"Li,Ni,O,Si",Li3SiNiO5,mp-766472
0.9951000000000001,-2.741425320258233,6,"Na,Nb,O,S,Sc,Si",Na6Sc6Nb2Si5S7O48,mp-2715937
0.9958,-2.111751541761936,5,"Ga,H,Na,O,Si",Na6Ga5Si7H15O32,mp-686308
0.9972000000000001,-2.430553362280172,5,"Ca,H,K,O,Si",KCa4Si8H16O29,mp-708991
0.9977,-2.790622764477832,4,"Mg,Mn,O,Si",MgMn4(Si4O11)2,mp-2220263
0.9978,-2.296715172330305,6,"In,Na,Nb,O,S,Si",Na6Nb2In6Si5S7O48,mp-2716064
0.9984000000000001,-2.582002025543478,5,"Be,Cd,O,S,Si",Be3Cd4Si3SO12,mp-17493
0.9988999999999991,-2.227550186902377,6,"Ge,Mg,Na,O,S,Si",Na6Mg4Si3Ge4(S3O16)3,mp-2713855
0.9995,-1.9029067957142862,3,"Fe,O,Si",Fe2SiO4,mp-1103684
1.0011,-2.371948639218749,4,"Ca,O,Si,Sn",CaSi3SnO11,mp-1182049
1.0016,-3.0421284086125002,4,"K,Mg,O,Si",KMg3(SiO3)4,mp-1211613
1.0029,-3.174619841689453,4,"Gd,O,Se,Si",Gd4Si2Se3O7,mp-558965
1.0029,-2.5004194047294073,6,"Na,Nb,O,S,Si,Zn",Na6Nb8Zn4Si9(SO8)9,mp-2713843
1.003,-2.545739692668142,6,"Na,Nb,O,S,Si,Zn",Na18Nb16Zn8Si21(S5O48)3,mp-2712997
1.005299999999999,-2.301285910666666,4,"Li,Ni,O,Si",Li3Si2(NiO4)2,mp-756019
1.0069,-2.2917420620689652,5,"Mn,O,Sb,Si,Zn",Mn9Zn6Si4(SbO14)2,mp-850230
1.0094,-2.436551599793104,5,"Mg,Mn,O,Si,Zn",MgMnZnSiO6,mp-1210711
1.0114,-1.9989707072727292,4,"F,Hg,O,Si",SiHg2(OF3)2,mp-732203
1.0118,-3.035376521418719,4,"La,Mn,O,Si",La4Mn5(Si2O11)2,mp-541464
1.011899999999999,-3.031447080945833,4,"K,Mg,O,Si",KMg3(SiO3)4,mp-1211817
1.0137,-2.501365048081896,6,"Mg,Na,O,S,Si,Ti",Na6Mg3TiSi2(SO6)4,mp-2712530
1.0145,-2.948083500283627,6,"In,Na,O,P,Si,Ta",NaTa3InSiP5O24,mp-2715749
1.0158,-2.301493217999999,4,"Li,Ni,O,Si",Li3Si2(NiO4)2,mp-777771
1.0164,-2.53810392843311,6,"Ge,Na,O,S,Si,Zr",Na2Zr2Si3Ge2(SO8)3,mp-2713816
1.0181,-2.103669933949726,6,"Na,O,S,Si,Ta,Zn",Na6Ta8Zn16Si3(S11O48)3,mp-2714263
1.0188,-3.105510069592104,4,"Al,K,O,Si",KAl2(SiO3)4,mp-1211834
1.0192,-2.655728069937849,6,"In,Na,O,P,Si,Ta",Na6TaIn3Si2(PO6)4,mp-2715278
1.021799999999999,-3.036008592608695,5,"Ba,Ca,O,Si,V",Ba2CaV2(Si2O7)2,mp-1234941
1.0222,-2.618159211616379,4,"Mg,Mn,O,Si",MgMnSiO5,mp-1308866
1.0228,-2.463844245354406,6,"Mg,Na,Nb,O,S,Si",NaMgNbSi(SO6)2,mp-2712606
1.022999999999999,-2.248506298896074,5,"Na,O,S,Si,Sn",Na2Si3Sn4(SO8)3,mp-2713485
1.0232,-2.080809688571428,3,"Cd,O,Si",Cd2SiO4,mp-560842
1.0245,-2.711657042652414,6,"Ge,La,Na,O,P,Si",Na5La2SiGe2P5O24,mp-2715824
1.0252,-2.6428312311196382,6,"Ca,Na,Nb,O,S,Si",Na42Ca16Nb8Si21(S5O48)3,mp-2715670
1.0261,-2.789186296999999,3,"Mg,O,Si",MgSiO3,mp-1256030
1.027,-2.493155526263612,6,"Ca,Na,Nb,O,S,Si",Na12Ca10Nb2Si3(S5O24)3,mp-2713349
1.0271,-2.41669049504023,6,"Ca,Ge,Na,O,S,Si",Na6CaSi4Ge3(SO12)2,mp-2714564
1.027199999999999,-2.6364850368333332,5,"Al,N,Nd,O,Si",Nd8AlSi3(NO5)3,mp-677348
1.027199999999999,-2.9959345500000003,5,"Ba,Ca,O,Si,V",Ba2CaV2(Si2O7)2,mp-1233644
1.0276,-2.186228298837028,6,"In,Na,Nb,O,S,Si",Na2Nb2In6Si3(S3O16)3,mp-2716488
1.0289,-2.5766231032163383,4,"Li,Mn,O,Si",LiMnSiO4,mp-780872
1.032,-2.297724281666666,4,"Li,Ni,O,Si",Li3Si2(NiO4)2,mp-780288
1.036299999999998,-2.4305030500331553,5,"C,Li,Mn,O,Si",Li3MnSiCO7,mp-772668
1.037699999999999,-2.848293050585937,4,"C,Mg,O,Si",Mg30SiCO32,mp-1039816
1.0384,-3.112088095364582,5,"Al,Ca,Mg,O,Si",Ca16MgAl14Si9O56,mp-686347
1.0387,-2.8571890153085313,4,"Mg,Mn,O,Si",MgMn2(SiO3)4,mp-2230268
1.038799999999999,-2.682280191181108,6,"Ca,Na,O,S,Si,Ti",Na10Ca3Ti5Si6(SO8)6,mp-2713148
1.041499999999999,-2.963217324444445,3,"O,Si,Ti",TiSiO4,mp-1364577
1.0448,-2.8202584239927413,4,"Ca,Mn,O,Si",Ca2Mn2(SiO4)3,mp-1250185
1.045,-2.686166069740215,6,"Ca,Na,Nb,O,S,Si",Na18Ca8Nb16Si21(S5O48)3,mp-2712860
1.0468,-2.487269709451091,5,"Al,Mn,O,Sb,Si",Mn13Al4Si2(SbO14)2,mp-560917
1.0476,-2.812227676582758,5,"Ca,Fe,Na,O,Si",Na3Ca2Fe5(SiO3)10,mp-695491
1.0491,-2.686786194666666,3,"Co,O,Si",Co(Si2O5)2,mp-1043669
1.0507,-2.35246753542069,5,"Al,N,Na,O,Si",Na4Al3Si3NO14,mp-1173847
1.0511,-2.567095916252053,4,"Li,Mn,O,Si",LiMnSiO4,mp-780147
1.0521,-3.006848306875,4,"Ca,Cu,O,Si",CaCu(Si2O5)2,mp-6189
1.0532,-3.012247951718751,4,"Ba,Cu,O,Si",BaCu(Si2O5)2,mp-6127
1.053599999999999,-2.373757076921896,6,"Mg,Na,O,S,Si,Ta",Na18Mg20Ta4Si3(S11O48)3,mp-2713636
1.054199999999999,-2.200435917261363,6,"Al,Fe,H,K,O,Si",K2Al4Fe5Si5(HO6)4,mp-685130
1.0573,-2.181834199705882,5,"Co,Mg,O,Si,Zn",MgZn2Co2(SiO5)2,mp-2229044
1.0574,-2.266433355701753,5,"Ag,Mg,O,Si,Ti",MgTi2Si2(Ag2O5)2,mp-2232007
1.0575,-2.661054847127602,6,"Mg,Na,Nb,O,S,Si",Na18Mg8Nb16Si21(S5O48)3,mp-2713023
1.0593,-3.01476975453125,4,"Cu,O,Si,Sr",SrCu(Si2O5)2,mp-14862
1.060199999999999,-2.9207112826125,6,"Al,Fe,K,Mg,O,Si",KMg2AlFe(SiO4)3,mp-1223578
1.0612,-2.601431343724137,4,"Li,Mn,O,Si",Li3Mn2(SiO4)2,mp-1306442
1.062299999999999,-2.664040511333332,5,"Al,N,Nd,O,Si",Nd8AlSi3(NO5)3,mp-1262187
1.0634,-2.148359418202917,5,"C,Co,Na,O,Si",Na3CoSiCO7,mp-771041
1.065299999999999,-2.630470352491791,6,"Mg,Na,Nb,O,S,Si",NaMgNb3Si3(SO8)3,mp-2713894
1.066599999999999,-2.388267783105717,6,"Mg,Na,Nb,O,S,Si",Na12Mg10Nb2Si3(S5O24)3,mp-2713377
1.0678,-2.57648137779023,6,"Ca,Na,O,S,Si,Ti",Na6Ca3TiSi2(SO6)4,mp-2712659
1.068499999999999,-2.622364061747348,6,"Ca,Na,Nb,O,S,Si",Na10Ca4Nb4Si7S5O48,mp-2715847
1.0701,-2.282369493390804,5,"C,Mn,Na,O,Si",Na2MnSiCO7,mp-770912
1.0701,-2.564764500722175,6,"Mg,Na,O,S,Si,Ta",Na18Mg8Ta4Si9(SO8)9,mp-2716214
1.0723,-2.3381999524688712,5,"Ca,H,Mn,O,Si",Ca12Mn8Si7(H5O16)3,mp-746884
1.073599999999999,-2.540333928158457,6,"Na,Nb,O,S,Si,Zn",NaNb3ZnSi3(SO8)3,mp-2713738
1.0747,-1.713007648750002,4,"Mg,O,Si,Tl",MgTl6Si2O7,mp-1234150
1.0755,-2.433817300430278,6,"Al,Ge,Na,O,S,Si",Na4Al2Si3Ge2(SO8)3,mp-2713318
1.0758,-2.690637789598934,6,"Na,Nb,O,S,Si,Y",Na2Y6Nb2Si3(S3O16)3,mp-2716364
1.077,-1.674620269583333,3,"C,O,Si",Si4CO13,mp-1209673
1.0783,-1.981834624956075,6,"Ga,In,Na,O,S,Si",Na2In4Ga4SiS11O48,mp-2714280
1.0784,-2.294205239404763,4,"Co,Li,O,Si",LiCoSiO4,mp-849781
1.0795,-2.614965377219752,6,"Mg,Na,O,S,Si,Ta",Na4Mg2Ta2Si3(SO8)3,mp-2713549
1.0806,-3.020453605847702,5,"Fe,Na,O,Si,Ti",Na8Ti3Fe(Si4O11)4,mp-1221107
1.0825,-3.132356512467948,6,"Al,B,Ca,Fe,O,Si",Ca2Al2FeSi4BO16,mp-734098
1.0831,-2.917578985624999,4,"Mg,O,Si,Sr",SrMg30SiO32,mp-1039905
1.0847,-2.493534072256076,6,"Mg,Na,O,S,Si,Ta",Na2Mg4Ta4Si3(S3O16)3,mp-2716496
1.088,-2.060434616448881,4,"Li,Mn,O,Si",Li2Mn2Si4O11,mp-802450
1.0886,-2.5815684206127463,5,"Nb,O,S,Si,Zn",Nb10Zn2Si9(SO8)9,mp-2713973
1.0886,-2.557766681879854,6,"Na,O,S,Si,Ti,Zn",Na6Ti6Zn2Si5S7O48,mp-2716011
1.0902,-2.147523127132353,5,"Nb,O,S,Si,Zn",Nb2Zn2SiS5O24,mp-2713017
1.0904,-2.771206012965687,5,"Nb,O,S,Si,Zr",Zr2Nb2Si3(SO8)3,mp-2714012
1.0911,-2.635539022395191,6,"Ca,Na,O,S,Si,Ta",Na4Ca2Ta2Si3(SO8)3,mp-2713703
1.0934,-2.405734327976191,4,"Cr,Li,O,Si",Li5Cr17(SiO16)2,mp-766075
1.0981,-0.25788839845703004,5,"C,H,O,Si,Sn",Si2Sn2H41C16O3,mp-1205138
1.0988,-2.716781360430279,6,"Ca,Na,O,S,Si,Ti",Na4CaTi3Si3(SO8)3,mp-2713228
1.102499999999999,-2.502610641609585,6,"Na,O,S,Si,Sn,Y",Na6Y4Si5Sn4S7O48,mp-2715838
1.1027,-2.5600389505828183,6,"Mg,Na,Nb,O,S,Si",Na15Mg7Nb5Si9(SO8)9,mp-2713388
1.103899999999999,-2.611556263826629,6,"Mg,Na,O,S,Si,Ti",Na2MgTi3Si2(SO6)4,mp-2712683
1.105499999999999,-2.962875237083333,4,"Ca,Fe,O,Si",Ca2Fe2(SiO3)5,mp-818683
1.1063,-2.5925507008974362,4,"Cr,Li,O,Si",Li2Cr2Si2O7,mp-758171
1.106799999999999,-3.068277864418105,4,"Ca,Mn,O,Si",Ca3Mn2(SiO4)3,mp-1265277
1.1074,-2.323324132586207,4,"Li,Mn,O,Si",Li3Mn3SiO8,mp-761765
1.1078000000000001,-2.586354692491791,6,"In,Na,O,S,Si,Ta",Na2Ta5In3Si6(SO8)6,mp-2713750
1.107999999999999,-2.965773723188405,5,"Li,O,Si,Sr,V",Sr2LiV2(Si2O7)2,mp-1235092
1.1081,-2.7101095032656,6,"Mg,Na,Nb,O,S,Si",Na6Mg4Nb20Si21(S5O48)3,mp-2715809
1.1101,-2.314635581051314,6,"In,La,Na,O,S,Si",Na2La4In4SiS11O48,mp-2714207
1.1112,-2.698130480649577,6,"Mg,Na,O,S,Si,Ti",Na4MgTi3Si3(SO8)3,mp-2713589
1.1151,-3.087395360083908,6,"Al,B,Ca,Mn,O,Si",Ca2MnAl2Si4BO15,mp-727393
1.1153,-2.527905235807177,6,"Ge,La,Na,O,S,Si",Na10La4Si7Ge4S5O48,mp-2714174
1.1155,-2.5871116159789542,6,"Al,Na,Nb,O,S,Si",Na6Nb2Al6Si5S7O48,mp-2715964
1.1159,-2.953320414217241,4,"Li,Mn,O,Si",Li3Mn(Si2O5)3,mp-757017
1.116099999999999,-2.138289871879855,6,"Ge,Na,O,S,Si,Zn",Na6Zn2Si5Ge6S7O48,mp-2716013
1.1176,-2.451865958406224,6,"Ca,Ge,Na,O,S,Si",Na14Ca5Si6Ge3(SO8)6,mp-2714079
1.1188999999999991,-2.533685142683111,6,"Ga,Na,O,S,Si,Ta",Na2Ta2Ga2Si3(SO8)3,mp-2713370
1.1189,-3.034810817920456,4,"Al,K,O,Si",K3Al2Si4O13,mp-736542
1.120499999999999,-1.8678163863095252,3,"Fe,O,Si",Fe31Si5O48,mp-760116
1.1212,-3.50749729142857,5,"Ba,Ce,F,O,Si",Ba2Ce3Si3O12F,mp-2899768
1.121299999999999,-2.360531009555508,6,"Na,O,S,Si,Ta,Zn",Na18Ta4Zn8Si9(SO8)9,mp-2716254
1.121999999999999,-2.359491849499999,4,"O,Si,W,Y",Y2Si3(WO4)3,mp-1157227
1.1241,-2.367078019987962,6,"Na,Nb,O,S,Si,Zn",Na6Nb4Zn4Si5S7O48,mp-2715976
1.124699999999999,-2.260649092544269,6,"Ca,Ge,Na,O,S,Si",Na6CaSi6Ge7(SO8)6,mp-2714629
1.1248,-2.892777083749999,4,"Cu,Mg,O,Si",MgCu(Si2O5)2,mp-1043306
1.1267,-2.467746856720148,6,"Mg,Na,O,S,Si,Ti",Na2Mg2Ti2SiS5O24,mp-2714609
1.1273,-2.780759016044625,4,"Cu,Na,O,Si",Na2Cu(Si2O5)2,mp-18033
1.1280000000000001,-2.4606055755285032,6,"In,Na,O,S,Si,Ti",Na6Ti4In4Si5S7O48,mp-2715992
1.128299999999999,-2.645998080573548,6,"Al,Na,O,S,Si,Ti",Na6Ti4Al4Si5S7O48,mp-2716108
1.13,-2.7416539561880393,5,"Na,O,Si,Sn,Zr",Na8Zr3Si12SnO40,mp-1221150
1.1305,-2.491865696041666,4,"Li,Ni,O,Si",Li5Si2NiO8,mp-753204
1.1311,-2.495191824451411,4,"Li,Mn,O,Si",Li9Mn(SiO5)2,mp-1176791
1.1317,-3.1051841578125,4,"Ca,O,Si,V",CaVSiO5,mp-1213869
1.1318,-2.4463451954629623,4,"Cu,Li,O,Si",Li7Cu(SiO4)2,mp-860886
1.1320000000000001,-2.645552811609584,6,"Mg,Na,O,S,Si,Ti",Na6Mg2Ti6Si5S7O48,mp-2715948
1.132099999999999,-2.569465274914592,6,"Na,O,S,Si,Sn,Zr",Na2Zr2Si3Sn2(SO8)3,mp-2713412
1.1323,-2.434861681414285,4,"Ca,K,O,Si",K2Ca2Si8O23,mp-1197582
1.1332,-2.705346373717981,6,"Na,Nb,O,S,Si,Y",Na2Y4Nb4Si5S7O48,mp-2716164
1.134399999999999,-2.615658136833787,6,"Na,O,S,Si,Ti,Zn",Na4Ti3ZnSi3(SO8)3,mp-2713322
1.134699999999999,-3.0422913541125,4,"K,Mg,O,Si",KMg3(SiO3)4,mp-1211275
1.1353,-2.283072497298852,6,"Na,Nb,O,S,Si,Zn",NaNbZnSi(SO6)2,mp-2712749
1.1356,-2.5158243911877403,6,"Na,O,S,Si,Ti,Zn",Na2Ti3ZnSi2(SO6)4,mp-2712684
1.1371,-2.7589414296875,3,"O,Rb,Si",RbSi2O5,mp-1201483
1.1382,-3.199971707321429,5,"Ba,Ca,Cu,O,Si",Ba3CaCuSi6O17,mp-1214671
1.1438,-2.215394654713219,6,"In,Na,O,S,Si,Ta",Na2Ta2In6Si3(S3O16)3,mp-2716315
1.1438,-3.2369672854385962,4,"Cu,Dy,O,Si",Dy2Cu(SiO3)4,mp-1213119
1.145199999999999,-2.690092128503696,6,"La,Na,Nb,O,S,Si",Na2La6Nb2Si3(S3O16)3,mp-2716398
1.146,-2.08167769441092,5,"H,Mn,O,Si,Zn",MnZn2Si(HO3)2,mp-1181196
1.146599999999999,-3.023347110260417,5,"Ca,Fe,O,Sc,Si",Ca8ScFe7(SiO3)20,mp-1228814
1.1469,-2.499110348431372,5,"Li,O,Si,V,Zn",LiV2Zn2(SiO5)2,mp-1236180
1.1483,-2.731742392370689,6,"Al,C,Ca,Na,O,Si",Na3CaAl3Si3CO15,mp-705635
1.1486,-2.590045040894911,4,"Li,Mn,O,Si",LiMnSiO4,mp-755753
1.1496,-2.9045583325664293,5,"Fe,K,Na,O,Si",KNaFe(Si2O5)2,mp-19130
1.15,-2.697779149036458,4,"B,Mg,O,Si",Mg14SiBO16,mp-1034819
1.150599999999999,-2.525737655333334,4,"Ca,Fe,O,Si",CaFe3Si2O9,mp-859186
1.151,-2.020683488333333,3,"Fe,O,Si",Fe7(SiO6)2,mp-763339
1.1513,-2.361179051239224,4,"Li,Mn,O,Si",Li9Mn5(SiO8)2,mp-859122
1.1521,-2.511193490196079,5,"Li,O,Si,V,Zn",LiV2Zn2(SiO5)2,mp-1235244
1.154499999999999,-2.788436506410256,4,"Li,O,Si,V",LiV2(SiO4)2,mp-778032
1.1566,-2.375403176793102,4,"Fe,Mn,O,Si",Mn2Fe3(SiO4)3,mp-1249697
1.157699999999999,-2.310644164191297,6,"Ge,Na,O,S,Si,Zn",Na4ZnSi2GeSO12,mp-2714530
1.158,-2.580277792228448,6,"Cr,F,Mg,Na,O,Si",Na3Mg4CrSi8(O11F)2,mp-693605
1.158299999999999,-2.368479593360596,6,"Na,Nb,O,S,Si,Zn",Na15Nb5Zn7Si9(SO8)9,mp-2716495
1.1598,-2.447677532484036,6,"Na,O,S,Si,Sn,Y",NaYSiSn(SO6)2,mp-2712545
1.160899999999999,-2.31939879134804,5,"La,O,S,Si,Sn",La2SiSn2S5O24,mp-2712941
1.1615,-2.497149226436782,4,"Na,O,Si,Ti",Na2Ti2Si2O11,mp-1198063
1.1615,-2.925257907676952,4,"Ca,Mn,O,Si",CaMn2(SiO3)4,mp-1154719
1.162599999999999,-2.177551592113609,6,"Ca,Fe,H,Mn,O,Si",Ca2MnFeSi4(HO3)5,mp-1263007
1.166999999999999,-2.492765114666666,4,"Fe,Li,O,Si",Li3Fe2(SiO4)2,mp-752644
1.1673,-2.575025296375,4,"Mg,O,Si,W",MgSi2WO6,mp-1041873
1.167499999999999,-2.039728200551314,6,"Ga,Ge,Na,O,S,Si",Na2Ga4Si3Ge4(S3O16)3,mp-2716427
1.168499999999999,-2.303033885201927,6,"Ca,Na,O,S,Si,Sn",Na6CaSi6Sn7(SO8)6,mp-2714871
1.1731,-2.502355653786208,3,"Mn,O,Si",MnSiO3,mp-1180172
1.173299999999999,-2.320375553659134,6,"Ca,Na,O,S,Si,Sn",Na6Ca4Si3Sn4(S3O16)3,mp-2713758
1.1736,-2.949598319,4,"Ca,Co,O,Si",CaCo(SiO3)2,mp-18894
1.1738,-2.5638004039560762,6,"Mg,Na,Nb,O,S,Si",Na6Mg8Nb16Si15(S7O48)3,mp-2716224
1.174099999999999,-2.516844338073548,6,"Mg,Na,O,S,Si,Ti",Na6Mg4Ti4Si3(S3O16)3,mp-2714002
1.1755,-2.666915940994694,4,"Li,Mn,O,Si",Li3MnSi2O7,mp-753370
1.1803,-2.308659633095238,4,"Co,Li,O,Si",LiCoSiO4,mp-752623
1.180699999999999,-2.629095385526317,4,"Co,Mg,O,Si",MgCo2(SiO3)4,mp-2230491
1.1812,-2.703210352815048,6,"Cs,Cu,H,Na,O,Si",Cs2Na4Cu2Si12H4O31,mp-709921
1.182,-2.727587684833334,3,"Fe,O,Si",Fe(Si2O5)2,mp-1043700
1.184799999999999,-2.171974545,3,"O,Pb,Si",SiPbO3,mp-978489
1.1863000000000001,-2.244540214852827,6,"Ge,Mg,Na,O,S,Si",Na6Mg6SiGe2S11O48,mp-2712534
1.186599999999999,-3.242937973281249,4,"Gd,O,S,Si",Gd4Si2S3O7,mp-1204595
1.1882,-2.609577850416666,2,"O,Si",SiO2,mp-554397
1.192,-3.1185331772355,6,"Al,Ca,H,Mn,O,Si",Ca2MnAl2Si3HO13,mp-745107
1.1923,-2.451345579061858,6,"Na,O,S,Si,Ta,Zn",Na4Ta2Zn2Si3(SO8)3,mp-2713702
1.196699999999999,-2.561736793566243,6,"Ca,Na,O,S,Si,Ti",Na2CaTiSi(SO6)2,mp-2713689
1.201,-2.384313344,4,"Co,Li,O,Si",Li3CoSiO5,mp-758411
1.2034999999999991,-2.540798853219075,6,"Mg,Na,Nb,O,S,Si",Na24Mg10Nb2Si9(SO8)9,mp-2714970
1.2056,-2.921783867536398,6,"Ca,F,Lu,Na,O,Si",NaCa2LuSi2O7F2,mp-720948
1.206199999999999,-2.330976238360838,6,"Ge,Na,O,S,Sc,Si",Na2Sc4Si3Ge4(S3O16)3,mp-2716443
1.2063,-2.45342806704023,6,"Ca,Na,O,S,Si,Sn",Na6CaSi4Sn3(SO12)2,mp-2714433
1.2085,-2.549614602166641,6,"Ca,Na,O,S,Si,Ta",Na18Ca16Ta8Si9(S3O16)9,mp-2713722
1.2118,-2.6386830123234812,4,"Li,Mn,O,Si",LiMnSiO4,mp-1662331
1.2118,-2.576125480911386,6,"Ca,Na,O,S,Si,Ti",Na6Ca4Ti4Si3(S3O16)3,mp-2713886
1.2122,-2.47698987126574,6,"Mg,Na,O,S,Si,Ta",Na18Mg16Ta8Si9(S3O16)9,mp-2713845
1.2136,-2.780969298477833,4,"Mg,Mn,O,Si",MgMn4(Si4O11)2,mp-1234643
1.2147000000000001,-2.179064803392647,6,"Na,O,S,Si,Sn,Zn",Na10Zn4Si5Sn4S7O48,mp-2714924
1.214799999999999,-2.383051641289409,6,"In,Na,Nb,O,S,Si",Na2Nb4In4Si5S7O48,mp-2716165
1.2157,-2.647417826303481,6,"Ca,Na,Nb,O,S,Si",Na6Ca4Nb8Si9(SO8)9,mp-2713464
1.2164,-2.599990621854186,6,"Ca,Na,O,S,Si,Ti",Na10Ca4Ti4Si5S7O48,mp-2714964
1.2165,-2.2252900589814812,3,"Ag,O,Si",Si2Ag2O5,mp-1208960