band_gap,formation_energy_per_atom,nelements,elements,formula,material_id
4.7968,-3.386853927339285,4,"Ca,O,P,Si",Ca5Si(PO6)2,mp-1227400
4.798599999999999,-3.202781104285715,4,"Al,Li,O,Si",LiAlSiO4,mp-6327
4.798599999999999,-3.70066699772727,3,"Er,O,Si",Er2Si2O7,mp-7064
4.7986,-3.047445939624999,5,"Ca,Mg,Ni,O,Si",Ca4MgSi8(NiO8)3,mp-1227573
4.7991,-3.116521979280619,6,"La,Na,O,Si,Sr,Zn",Na3SrLaZnSi6O17,mp-13726
4.7992,-3.673952493636363,3,"La,O,Si",La2Si2O7,mp-5732
4.800599999999999,-3.332293287729886,5,"F,Na,O,Si,Tm",Na5Tm4Si4O16F,mp-1192572
4.800600000000001,-3.212551147875,3,"Mg,O,Si",MgSiO3,mp-1020118
4.8014,-2.936744717241379,5,"Ca,H,O,Si,Zr",CaZrSi6H4O17,mp-1194879
4.803,-2.9973814618229673,6,"Al,H,K,Na,O,Si",K3NaAl12Si12(HO6)8,mp-1203739
4.8031,-2.623642914489942,5,"Li,Na,O,Rb,Si",RbNa3Li12(SiO4)4,mp-17240
4.8042,-3.658035678636363,3,"O,Si,Y",Y2Si2O7,mp-5652
4.8045,-2.95205782841133,4,"Al,Na,O,Si",NaAlSiO4,mp-1220851
4.8053,-3.604172741770831,4,"Ba,Dy,O,Si",BaDy2Si3O10,mp-1195063
4.806900000000001,-3.082550168541667,5,"Al,Be,H,O,Si",Be3Al2Si6HO18,mp-1214221
4.8073,-1.52397279584117,4,"H,Na,O,Si",Na2Si(H3O2)6,mp-722977
4.809,-3.317721275933908,5,"Cs,Er,F,O,Si",Cs2ErSi4O10F,mp-1196674
4.8099,-2.618136637333333,5,"Al,H,Li,O,Si",LiAlSiH2O5,mp-697020
4.811299999999999,-3.096626491762932,5,"Al,Mg,Na,O,Si",Na4MgAl2(Si3O8)3,mp-1173790
4.8124,-2.9388437666250002,5,"C,Ca,H,O,Si",Ca4Si2H2CO11,mp-604909
4.812799999999999,-3.377156034615385,3,"Ba,O,Si",Ba2Si3O8,mp-553897
4.813,-3.221192822633334,4,"K,O,Si,Zr",K2Zr(SiO3)3,mp-6600
4.8159,-3.1068021320833332,2,"O,Si",SiO2,mp-559860
4.8161000000000005,-3.588372896250001,4,"Ba,O,Si,Y",BaY2Si3O10,mp-560478
4.8179,-3.153178995022489,4,"Na,O,Sc,Si",Na4Sc2Si4O13,mp-555825
4.819699999999999,-3.454300557692307,4,"Al,Ba,O,Si",BaAl2(SiO4)2,mp-6091
4.8212,-3.4051990275,3,"O,Si,Sr",SrSiO3,mp-561547
4.8219,-2.81514745425,4,"Ca,H,O,Si",Ca2SiH2O5,mp-541431
4.822299999999999,-3.339448230758621,5,"Ba,Na,Nd,O,Si",BaNaNd(SiO3)3,mp-13791
4.8223,-3.308288258721264,4,"Cs,O,Si,Th",Cs2Th(Si2O5)3,mp-1204133
4.8225999999999996,-3.180004089010345,6,"Ba,C,Na,Nd,O,Si",BaNa2Nd2Si4CO15,mp-559586
4.8233,-3.629979529999999,4,"Ca,F,O,Si",Ca4Si2O7F2,mp-560163
4.8235,-3.88727956575,5,"Ba,F,O,Si,Y",Ba2Y3Si2O8F5,mp-1196983
4.8237000000000005,-3.00742880677381,5,"Al,H,K,O,Si",KAl3Si3(HO6)2,mp-1200795
4.8258,-3.220490091076535,6,"Al,Ca,Cl,Na,O,Si",Na3CaAl4Si8ClO24,mp-684921
4.8269,-3.157632202134145,5,"Ca,H,Mg,O,Si",Ca2Mg5Si8(HO12)2,mp-1196550
4.8294,-3.117565595833333,2,"O,Si",SiO2,mp-545719
4.83,-3.145793632580015,4,"Be,K,O,Si",K2Be2(Si2O5)3,mp-561549
4.830500000000001,-3.632689089895833,4,"Ba,Lu,O,Si",BaLu2Si3O10,mp-1194557
4.831,-3.219875766749999,3,"Mg,O,Si",MgSiO3,mp-1020125
4.8314,-3.740110009375007,3,"O,Si,Sm",Sm2SiO5,mp-1208880
4.8323,-3.157772938265517,4,"Na,O,Si,Y",Na3Y(Si2O5)3,mp-14977
4.8327,-3.377933791730798,3,"Ba,O,Si",Ba2Si3O8,mp-29222
4.8347000000000016,-3.279038575706635,4,"Na,O,Pr,Si",NaPr(Si3O7)2,mp-557126
4.8347999999999995,-3.6174564834375,4,"Ba,Er,O,Si",BaEr2Si3O10,mp-1195744
4.8355,-2.646713916818611,6,"Al,Ca,H,Na,O,Si",Na2Ca2Al6Si9(H8O19)2,mp-1204300
4.8382000000000005,-3.3748300146875,3,"Al,O,Si",Al2SiO5,mp-4753
4.839600000000001,-3.37981357025,5,"Al,Ca,Mg,O,Si",Ca2MgAl2(SiO4)3,mp-1227468
4.8413,-3.4480482148333342,3,"Ca,O,Si",CaSiO3,mp-4429
4.841799999999999,-3.307048322111113,5,"Al,B,Mg,O,Si",MgAl3SiBO9,mp-1210669
4.8424,-2.623302911899999,5,"Al,Ca,H,O,Si",CaAl2Si3H6O13,mp-1202683
4.843,-3.283489462449058,4,"Na,Nd,O,Si",NaNd(Si3O7)2,mp-560226
4.8435,-2.979115171762931,4,"Mg,Na,O,Si",Na2MgSi5O12,mp-1221383
4.8449,-3.724177851666667,3,"Lu,O,Si",Lu2Si2O7,mp-7193
4.8469999999999995,-3.784206000416667,3,"O,Si,Tb",Tb2SiO5,mp-1208518
4.8476,-3.204281977976191,4,"Al,Li,O,Si",LiAlSiO4,mp-6326
4.8477,-3.261697410499999,4,"Ca,Mg,O,Si",CaMg(SiO3)2,mp-1019580
4.8482,-3.377773632333332,4,"Cl,O,Pr,Si",Pr3Si2Cl3O7,mp-559391
4.848599999999999,-3.103527938914332,5,"Ca,H,Na,O,Si",NaCa2Si3HO9,mp-23792
4.8486,-3.203794858928572,4,"Al,Li,O,Si",LiAlSiO4,mp-14399
4.8495,-3.449158389210526,4,"Ca,O,Si,Zr",Ca2Zr(SiO3)4,mp-560339
4.852099999999999,-3.220683370725,4,"Al,K,O,Si",KAl(SiO3)2,mp-554433
4.8522,-3.038928223453664,4,"Be,Na,O,Si",Na2Be2(SiO3)3,mp-555182
4.8578,-1.915831116789272,4,"H,Na,O,Si",Na4Si4H18O19,mp-1199706
4.858,-2.77117283852564,5,"Al,H,Li,O,Si",LiAlSi2H2O7,mp-24104
4.8589,-3.343021841375,5,"F,K,O,Si,Sr",KSr2Si4O10F,mp-1211577
4.8602,-3.220845786,3,"Mg,O,Si",MgSiO3,mp-1020124
4.8614,-3.065595974179598,5,"Al,Mg,Na,O,Si",Na12Mg5Al2Si29O72,mp-1173868
4.866300000000001,-2.609140709411765,4,"Al,H,O,Si",Al2Si2H4O9,mp-1198588
4.8668,-3.440315098690477,4,"Li,O,Si,Tm",LiTmSiO4,mp-15066
4.869,-3.290099668171875,6,"Al,Be,Ca,K,O,Si",KCa2Be2Al(Si2O5)6,mp-693620
4.8696,-2.275643727647508,5,"H,Li,Na,O,Si",NaLiSi2H4O7,mp-1192726
4.872199999999999,-2.617462862212883,6,"Cs,K,Li,Na,O,Si",CsKNa2Li12(SiO4)4,mp-17718
4.8727,-2.634503632268519,4,"Li,O,Rb,Si",RbLi7(SiO4)2,mp-554752
4.8743,-2.493319828487069,6,"Ca,F,H,K,O,Si",KCa4Si8H16O28F,mp-1196532
4.875699999999999,-2.613072448583333,4,"K,Li,O,Si",KLi3SiO4,mp-1211498
4.8774,-3.21046014209411,4,"Na,O,Si,Zr",Na2Zr(Si2O5)3,mp-1221344
4.8796,-3.241411223965518,4,"Al,Cs,O,Si",CsAl(SiO3)2,mp-562920
4.8809000000000005,-2.850949327811403,5,"H,K,O,Si,Tb",K3TbSi3(HO5)2,mp-759928
4.8815,-3.489300113072101,5,"Ba,Na,O,Si,Y",Ba3NaY3(Si3O10)2,mp-1019523
4.883,-3.283304499871795,4,"F,Mg,O,Si",Mg7Si8(O11F)2,mp-559177
4.885,-2.602810342083333,5,"Al,H,Li,O,Si",LiAlSiH2O5,mp-1204399
4.8853,-2.7857254965,4,"H,K,O,Si",KSi2HO5,mp-1223741
4.8855,-3.298846430208334,4,"O,Rb,Si,Th",Rb2Th(Si2O5)3,mp-1194623
4.8862000000000005,-3.21218744587533,4,"Al,Na,O,Si",NaAlSi3O8,mp-721988
4.886700000000001,-2.739440860803131,7,"Al,Ca,H,Mn,O,P,Si",CaMnAl4SiP3(HO4)5,mp-1199709
4.8900000000000015,-3.826331624166665,3,"O,Si,Th",ThSiO4,mp-5836
4.892099999999999,-2.998850703947369,3,"Mg,O,Si",Mg(SiO2)6,mp-1233788
4.8935,-3.376170139166666,6,"Ba,Ca,Mg,O,Si,Sr",Ba3Sr2Ca4Mg3(SiO4)6,mp-1228617
4.894299999999999,-3.381161893571428,4,"Ca,Mg,O,Si",Ca3Mg(SiO4)2,mp-558209
4.8951,-3.374907258214285,6,"Ba,Ca,Mg,O,Si,Sr",Ba2SrCa3Mg2(SiO4)4,mp-1228533
4.8957000000000015,-2.812427981136363,5,"Al,Ca,H,O,Si",CaAl2Si3(HO3)4,mp-1194858
4.898499999999999,-3.186331584487068,5,"F,K,O,Si,Sm",K9Sm3Si12(O16F)2,mp-560235
4.8989,-3.407741476538461,4,"Al,Ca,O,Si",CaAl2(SiO4)2,mp-1227479
4.9005,-3.204650760333332,4,"Al,Li,O,Si",LiAl(SiO3)2,mp-558808
4.9007000000000005,-2.608322255000001,4,"Al,H,O,Si",Al2Si2H4O9,mp-698132
4.9009,-3.244703725961538,4,"Al,O,Rb,Si",RbAlSi3O8,mp-1219605
4.9016,-3.187745788600344,5,"K,Na,O,Si,Y",KNa2Y(Si2O5)3,mp-555155
4.9049,-3.106505494545455,4,"C,Ca,O,Si",Ca5Si2C2O13,mp-6753
4.9056,-3.275320132329545,6,"Al,Ca,H,O,Si,Sr",SrCa3Al6Si6(HO13)2,mp-1218654
4.9072000000000005,-3.615543225227272,3,"O,Si,Sm",Sm2Si2O7,mp-18391
4.908,-3.310627612457165,6,"Ca,K,Na,O,Si,Th",KNaCaTh(Si2O5)4,mp-1223475
4.9116,-3.449646577692308,4,"Al,Ba,O,Si",BaAl2(SiO4)2,mp-1019535
4.912599999999999,-3.592923195338541,4,"B,O,Si,Sm",Sm3Si2BO10,mp-13500
4.9127,-2.198597497500001,5,"Al,H,N,O,Si",Al2Si3H8(NO5)2,mp-706243
4.9129000000000005,-3.331173155588235,4,"F,Mg,O,Si",Mg5Si2(O4F)2,mp-1195642
4.9135,-3.1375056024030172,4,"Cs,Mg,O,Si",Cs2MgSi5O12,mp-1019610
4.9139,-3.791786693541667,3,"Dy,O,Si",Dy2SiO5,mp-752405
4.9140999999999995,-3.098725148794117,4,"Be,K,O,Si",K2Be(Si2O5)2,mp-557802
4.9143,-3.219848268265492,5,"Hf,Na,O,P,Si",Na2Hf2Si(PO6)2,mp-2712619
4.9148,-3.197898241725,4,"Al,K,O,Si",KAl(SiO3)2,mp-1223598
4.9148,-3.218398298000001,3,"Mg,O,Si",MgSiO3,mp-557803
4.9156,-1.992495151951628,4,"H,Na,O,Si",NaSi2H7O8,mp-1221121
4.9166,-2.859767565355263,5,"Er,H,K,O,Si",K3ErSi3(HO5)2,mp-758527
4.918,-3.699185545454544,3,"Er,O,Si",Er2Si2O7,mp-7624
4.9196,-3.340782323333333,4,"Li,O,Sc,Si",LiSc(SiO3)2,mp-6553
4.921,-3.5854160185,5,"Al,Ca,O,Sc,Si",CaScAlSiO6,mp-39167
4.9217,-2.714522347614943,5,"H,Na,O,Si,Zr",Na2ZrSi4H4O13,mp-1210375
4.9243000000000015,-3.244951727480768,4,"Al,K,O,Si",KAlSi3O8,mp-697670
4.9247,-3.3374064462499993,5,"Ca,Mg,O,Si,Sr",SrCa3Mg4(SiO3)8,mp-1218570
4.924799999999999,-1.9188219810000002,3,"N,O,Si",Si2N2O,mp-4497
4.9275,-3.240757970942307,4,"Al,K,O,Si",KAlSi3O8,mp-1223636
4.927899999999999,-3.32985431287037,5,"F,Lu,O,Rb,Si",Rb2LuSi4O10F,mp-1196570
4.928,-3.197212561979166,6,"Ba,C,Cl,Li,O,Si",Ba9LiSi10C(ClO4)7,mp-559419
4.931,-3.655593218181817,3,"O,Si,Y",Y2Si2O7,mp-7999
4.9314,-3.5867759590625,4,"O,Si,Sr,Y",SrY2Si3O10,mp-1020706
4.9328,-2.902319666222221,5,"H,K,O,Si,Zr",K2ZrSi3(HO5)2,mp-720643
4.9329,-2.611352560588236,4,"Al,H,O,Si",Al2Si2H4O9,mp-721216
4.933,-3.234690236010637,6,"Al,Be,Ca,H,O,Si",Ca4Be2Al2Si9(HO14)2,mp-1214670
4.934799999999999,-3.308542512933728,6,"Ca,Na,O,Rb,Si,Th",RbNaCaTh(Si2O5)4,mp-1219651
4.9349,-3.635020397727272,3,"O,Si,Y",Y2Si2O7,mp-556860
4.9381,-3.237581568484849,4,"Ca,Li,O,Si",Li2Ca2Si5O13,mp-560247
4.938700000000001,-3.30559459253113,5,"Cs,F,O,Si,Y",Cs2YSi4O10F,mp-581114
4.9405,-3.676704552727273,3,"O,Si,Tm",Tm2Si2O7,mp-18318
4.9408,-3.365093341749999,3,"Ba,O,Si",BaSiO3,mp-776076
4.9408,-2.8071508166220243,4,"Li,O,P,Si",LiSiPO5,mp-1232382
4.940999999999999,-2.69467442542857,3,"O,P,Si",SiP2O7,mp-1020608
4.9411000000000005,-2.6777935726593523,5,"H,Na,O,Si,Zr",Na2ZrSi6(HO3)6,mp-1194692
4.9414,-3.331376750488506,4,"Al,B,O,Si",Al7Si3BO18,mp-1019381
4.943,-2.6068684623529412,4,"Al,H,O,Si",Al2Si2H4O9,mp-1183270
4.9447,-2.9747119095,4,"Al,Li,O,Si",Li3AlSiO5,mp-1020023
4.9475,-3.657226894848477,3,"O,Si,Tb",Tb2Si2O7,mp-17308
4.9477,-3.663021494090907,3,"Ho,O,Si",Ho2Si2O7,mp-16809
4.9487000000000005,-2.5706403129512543,6,"Al,B,H,Na,O,Si",Na4Al3Si3B(HO3)4,mp-694981
4.9489,-3.660100550303029,3,"Dy,O,Si",Dy2Si2O7,mp-17062
4.9498999999999995,-3.159876427906976,3,"Mg,O,Si",Mg14Si5O24,mp-28663
4.950100000000001,-3.317827060137931,4,"Na,O,Sc,Si",NaSc(SiO3)2,mp-7074
4.9526,-3.28011020630625,6,"Al,Ca,K,Mg,O,Si",KCa3Mg3Al(SiO3)8,mp-1223597
4.953200000000001,-3.142319337625,3,"Mg,O,Si",MgSiO3,mp-772412
4.9555,-3.330954054137932,4,"Al,Mg,O,Si",Mg2Al4Si5O18,mp-6174
4.9558,-3.3269152234099613,5,"Ca,F,Na,O,Si",NaCa2Si4O10F,mp-1210279
4.9573,-2.92937610226923,4,"K,Mg,O,Si",K2Mg2Si2O7,mp-1019779
4.957599999999999,-3.340084649583333,4,"Li,O,Sc,Si",LiSc(SiO3)2,mp-1180540
4.9618,-3.674736055681818,4,"Ho,La,O,Si",LaHoSi2O7,mp-1222979
4.9634,-3.340805022583333,4,"Li,O,Sc,Si",LiSc(SiO3)2,mp-6099
4.9651,-3.381912915357142,5,"Ba,Ca,Mg,O,Si",BaCa2Mg(SiO4)2,mp-1103554
4.9669,-1.6219951559482761,4,"H,Na,O,Si",Na2Si(H4O3)3,mp-24369
4.9688,-3.107585825833332,2,"O,Si",SiO2,mp-572283
4.9716000000000005,-3.343864678,4,"Ca,Mg,O,Si",CaMg(SiO3)2,mp-6766
4.973700000000001,-3.3576390623924732,4,"Al,B,O,Si",Al9Si2BO19,mp-1229075
4.9748,-3.344169308333333,5,"Ba,O,Rb,Sc,Si",RbBaSc(SiO3)3,mp-1197457
4.975199999999999,-3.249186521568485,4,"Cs,O,Si,Zr",Cs2Zr(Si2O5)3,mp-581877
4.9797,-2.446149798865517,5,"H,Na,O,Si,Y",Na3YSi3(HO2)6,mp-1210458
4.980499999999999,-3.2975936929375003,5,"Al,Ca,Mg,O,Si",Ca3Mg9Al8(SiO4)12,mp-1227888
4.9837,-0.466643985661764,5,"Al,C,H,O,Si",AlSiH11C3O,mp-1202994
4.9851,-2.610692871764706,4,"Al,H,O,Si",Al2Si2H4O9,mp-541152
4.9859,-2.629439063109757,5,"Al,Ca,H,O,Si",Ca2Al4Si4H10O21,mp-1197037
4.986599999999999,-3.431682531935484,4,"Ca,O,Si,Th",Ca2Th(Si2O5)4,mp-555528
4.9868,-3.39017086125,4,"Be,Ca,O,Si",Ca2BeSi2O7,mp-6208
4.992799999999999,-3.372199139687501,3,"Al,O,Si",Al2SiO5,mp-4934
4.9928,-3.6168604677777783,4,"Ba,O,Si,Y",BaY4Si5O17,mp-1019546
4.9935,-3.227567057333333,4,"Al,Li,O,Si",LiAl(SiO3)2,mp-1222469
4.994299999999999,-3.424325745961538,4,"Al,Ca,O,Si",CaAl2(SiO4)2,mp-758658
4.995,-3.195879981124999,5,"F,K,O,Si,Y",K9Y3Si12(O16F)2,mp-1198649
4.995699999999999,-2.742996080333333,3,"Li,O,Si",Li6Si2O7,mp-27767
4.9958,-1.105359148040541,6,"C,F,H,N,O,Si",SiH18C2N8(OF3)2,mp-766429
4.9969,-3.076140813971264,5,"Al,Mg,Na,O,Si",Na3MgAlSi7O18,mp-686601
4.997400000000001,-2.652387126839463,6,"H,K,Na,O,Si,Zr",KNaZrSi3H4O11,mp-773906
4.9975000000000005,-3.208499219336869,4,"Al,Na,O,Si",NaAlSi3O8,mp-1220855
5.0,-3.622445458068182,3,"O,Si,Sm",Sm2Si2O7,mp-21794
5.0006,-3.1131829675000002,2,"O,Si",SiO2,mp-2374583
5.0122,-2.785849177055555,4,"H,K,O,Si",KSi2HO5,mp-1203642
5.0136,-3.067913875416666,2,"O,Si",SiO2,mp-554665
5.0158,-3.288188046805555,5,"F,O,Rb,Sc,Si",Rb2ScSi4O10F,mp-1198458
5.016999999999999,-3.15194057,2,"O,Si",SiO2,mp-1244945
5.0173,-3.6089857975,3,"Nd,O,Si",Nd2Si2O7,mp-15225
5.0182,-3.760912721071428,5,"Ba,F,O,Si,Y",BaY2Si2O7F2,mp-1193084
5.0183,-2.977546089444444,2,"O,Si",SiO2,mp-556812
5.018599999999999,-3.050280072137931,4,"Mg,Na,O,Si",Na2MgSi5O12,mp-560603
5.0187,-2.905829124033764,4,"Cs,H,O,Si",CsSi3HO7,mp-758180
5.0218,-3.312407685579709,5,"B,Ba,Ca,O,Si",Ba2CaSi4(BO7)2,mp-1019518
5.0221,-3.6555368616666772,3,"Hf,O,Si",HfSiO4,mp-4609
5.0227,-3.523767822499999,4,"Be,Nd,O,Si",Nd2Be2SiO7,mp-9077
5.026299999999999,-3.5977467172348483,3,"O,Pr,Si",Pr2Si2O7,mp-3160
5.0286,-0.418661969642858,6,"C,Cl,H,N,O,Si",SiH8C2NClO,mp-560249
5.0296,-3.248137427318965,6,"Al,Ca,Mg,Na,O,Si",NaCaMgAl(SiO3)4,mp-1221089
5.0337,-3.071120229999999,2,"O,Si",SiO2,mp-6947
5.035,-3.068816304031251,4,"Be,K,O,Si",K2Be2(SiO3)3,mp-557472
5.039099999999999,-2.726446039210527,5,"Al,Ca,H,O,Si",CaAl2Si2(H2O5)2,mp-505288
5.0422,-3.039748184499999,3,"Mg,O,Si",MgSiO3,mp-603907
5.042499999999999,-3.312393359471265,4,"Na,O,Si,Y",NaY(SiO3)2,mp-554778
5.043299999999999,-3.267186189597221,5,"F,K,O,Pr,Si",K5Pr4Si4O16F,mp-1192490
5.046200000000001,-3.512607946904762,4,"Ba,Nd,O,Si",Ba2Nd2Si4O13,mp-561462
5.0523,-2.673080642989417,3,"Li,O,Si",Li4SiO4,mp-1223129
5.0561,-3.817780121999999,4,"Er,F,O,Si",Er4Si3O11F2,mp-554009
5.0573999999999995,-2.5203610678749993,4,"H,K,O,Si",KSiHO3,mp-707195
5.0577,-3.205890630875331,4,"Al,Na,O,Si",NaAlSi3O8,mp-1220859
5.0579,-2.244087048088235,4,"Ba,H,O,Si",BaSi2(H3O4)2,mp-721586
5.0585,-2.669438583611112,5,"Al,H,Mg,O,Si",Mg2Al2SiH4O9,mp-1222973
5.0612,-3.121236586666666,2,"O,Si",SiO2,mp-556880
5.0615,-3.023366194469697,4,"H,Mg,O,Si",Mg9Si4(HO9)2,mp-1222597
5.0622,-3.071413105759493,5,"Ca,F,H,O,Si",Ca13Si10H12(O17F5)2,mp-703370
5.0629,-2.483068081747918,6,"Ca,F,H,Na,O,Si",NaCa4Si8H16O28F,mp-722188
5.0666,-3.036285777395833,5,"Ca,Li,O,Si,Sr",SrLi4Ca(SiO4)2,mp-555089
5.071199999999999,-3.232537692631142,5,"Hf,Na,O,P,Si",Na3Hf4SiP5O24,mp-2712934
5.0766,-2.882894919444446,3,"Li,O,Si",Li2SiO3,mp-5012
5.0784,-3.040559052596779,8,"Al,B,H,Mg,Na,O,Si,V",NaMg2Al6VSi6B3H3O31,mp-1221055
5.0797,-2.100874562051282,4,"O,S,Si,Sr",Sr2Si(S2O7)4,mp-1020612
5.0859,-3.586752802083332,4,"Be,Ho,O,Si",Ho2Be2SiO7,mp-7013
5.089600000000001,-3.58398220486111,4,"Be,Dy,O,Si",Dy2Be2SiO7,mp-1213057
5.099399999999999,-3.299871274870833,6,"Al,Ca,K,Mg,O,Si",KCa5Mg5Al(SiO3)12,mp-534793
5.1007,-3.355220556750001,5,"Al,Ca,Mg,O,Si",Ca6Mg5Al2Si11O36,mp-699405
5.101800000000001,-3.25580806975,5,"Ca,H,O,Sc,Si",CaScSi3HO9,mp-707027
5.1019,-3.548922657083332,4,"Be,O,Si,Sm",Sm2Be2SiO7,mp-1208884
5.1049,-3.190218975,4,"Ca,Cl,O,Si",Ca2SiCl2O3,mp-556364
5.104999999999999,-3.3277072958333322,4,"Al,Ca,O,Si",CaAl4Si2O11,mp-1226904
5.1063,-2.633106668904762,4,"Li,O,P,Si",Li10Si(PO6)2,mp-721255
5.1099,-3.389171477250001,5,"Al,Ca,Mg,O,Si",Ca2MgAl2(SiO4)3,mp-677029
5.1156,-2.6299011555,5,"Al,Ca,H,O,Si",CaAl2Si3H6O13,mp-707746
5.1168,-3.774073270749999,4,"F,O,Si,Y",Y4Si3O11F2,mp-1200205
5.1182,-3.5810270248611102,4,"Be,O,Si,Tb",Tb2Be2SiO7,mp-1208515
5.1184,-3.253374418499999,4,"Al,Mg,O,Si",Mg3Al2(SiO4)3,mp-6073
5.1218,-3.233585709062501,4,"Cl,O,Si,Sr",Sr2SiCl2O3,mp-557304
5.1243,-3.044315215277778,2,"O,Si",SiO2,mp-560836
5.127800000000001,-3.272362653125,5,"Al,H,O,Si,Sr",Sr2Al3Si3HO13,mp-24802
5.1296,-3.113271014561402,4,"Li,Mg,O,Si",Li2Mg2Si4O11,mp-561336
5.1327,-3.187129669999999,2,"O,Si",SiO2,mp-556553
5.1333,-3.351645355256411,5,"Ca,F,Mg,O,Si",Ca2Mg5Si8(O11F)2,mp-557662
5.1355,-3.448033938666667,3,"Ca,O,Si",CaSiO3,mp-5733
5.136100000000001,-3.120783737552263,5,"B,K,Na,O,Si",KNa2Si12(BO10)3,mp-15541
5.1373,-3.445631944374999,4,"Al,Ca,O,Si",Ca3Al2(SiO4)3,mp-6008
5.137799999999999,-2.562285500437501,5,"Al,Ca,H,O,Si",CaAl2Si6H10O21,mp-1214127
5.1385,-2.724018262368422,5,"Al,Ca,H,O,Si",CaAl2Si2(H2O5)2,mp-733653
5.140499999999999,-3.578738700000001,4,"Cl,O,Pr,Si",Pr3Si2ClO8,mp-554826
5.1408,-2.61903438,4,"Ca,H,O,Si",CaSi(HO2)2,mp-1199682
5.1448,-2.6722044118783073,3,"Li,O,Si",Li4SiO4,mp-559848
5.1538,-2.826755404500001,3,"H,O,Si",Si4H2O9,mp-627632
5.154,-3.015912327407407,3,"Li,O,Si",Li2Si2O5,mp-4117
5.1541999999999994,-2.3584411196875,4,"H,Mg,O,Si",MgSi(HO2)2,mp-1078877
5.1545,-3.561541379999999,4,"Be,O,Si,Y",Y2Be2SiO7,mp-6655
5.1591000000000005,-3.037582036208333,4,"Li,Mg,O,Si",Li2MgSi5O12,mp-1222909
5.1673,-3.257958072026041,5,"K,Li,O,Si,Zr",KLi3Zr2(Si2O5)6,mp-16055
5.168799999999999,-3.091552772840909,5,"Be,Ca,H,O,Si",Ca3Be2Si3(HO6)2,mp-699464
5.1709,-3.10532082,3,"Mg,O,Si",MgSiO3,mp-642216
5.171,-2.8103631456666682,3,"H,O,Si",Si4H2O9,mp-627944
5.1726,-3.086161349166667,2,"O,Si",SiO2,mp-604717
5.1733,-3.09029413,2,"O,Si",SiO2,mp-557244
5.1736,-3.408786739499999,4,"F,Mg,O,Si",Mg3Si(O2F)2,mp-558458
5.1766,-2.971097704166667,4,"H,Mg,O,Si",Mg3Si4(HO6)2,mp-696497
5.176900000000001,-3.648074786818182,3,"O,Si,Y",Y2Si2O7,mp-561551
5.1792,-1.5474917763333331,3,"N,O,Si",Si2N2O,mp-4400
5.1816,-2.568855413060076,5,"Cs,H,O,P,Si",Cs2SiP4(HO7)2,mp-697078
5.187200000000001,-2.728540174736842,5,"Al,Ca,H,O,Si",CaAl2Si2(H2O5)2,mp-24603
5.189699999999999,-3.030369032083332,4,"Ca,Li,O,Si",Li2CaSiO4,mp-7610
5.1897,-2.382633038969109,4,"H,Na,O,Si",NaSi2(HO2)3,mp-697027
5.1931,-3.704217053257575,3,"Lu,O,Si",Lu2Si2O7,mp-1202190
5.195399999999999,-3.446416112291666,5,"F,O,Rb,Sc,Si",Rb3Sc2Si4(O2F)5,mp-1196025
5.197100000000001,-2.924719576080665,5,"Be,H,Na,O,Si",NaBeSi3HO8,mp-1220863
5.1978,-3.626125576287879,4,"O,Pr,Si,Y",PrYSi2O7,mp-1201353
5.1978,-3.587620056964285,4,"Cl,Nd,O,Si",Nd3Si2ClO8,mp-560830
5.199199999999999,-3.704521043939393,3,"Lu,O,Si",Lu2Si2O7,mp-18385
5.2035,-3.145057900833333,2,"O,Si",SiO2,mp-556319
5.2076,-3.18810415297619,4,"Al,Li,O,Si",LiAlSiO4,mp-556544
5.2089,-3.54634152625,5,"Al,Ca,F,O,Si",CaAlSiO4F,mp-6873
5.2111,-3.220701618931466,6,"F,K,Mg,Na,O,Si",KNaMg2Si4(O5F)2,mp-561491
5.213,-1.560096990506756,5,"C,H,N,O,Si",Si5H15C4NO12,mp-1196362
5.213100000000001,-3.401257328541667,4,"B,Nd,O,Si",NdSiBO5,mp-1220077
5.2194,-3.118233958554598,5,"Al,Mg,Na,O,Si",Na6MgAl4Si13O36,mp-677551
5.2254,-3.158493668637931,4,"Al,Na,O,Si",NaAl(SiO3)2,mp-6124
5.228199999999999,-3.704026231145833,5,"F,Li,O,Si,Y",LiY3Si2(O4F)2,mp-1202176
5.2315,-3.506243231547618,6,"B,Ba,F,O,Si,Y",BaY6Si3B6(O12F)2,mp-554918
5.2321,-0.5714590978703711,5,"C,H,N,O,Si",SiH14C6(NO2)2,mp-1195368
5.2351,-3.605712831136363,3,"Nd,O,Si",Nd2Si2O7,mp-556771
5.236199999999999,-3.36388194125,4,"Al,Ca,O,Si",CaAl12Si4O27,mp-560993
5.2394,-3.012992233333333,2,"O,Si",SiO2,mp-10948
5.2397,-3.18335428297619,4,"Al,Li,O,Si",LiAlSiO4,mp-559689
5.2439,-2.6445606731481472,3,"Li,O,Si",Li4SiO4,mp-35822
5.2447,-3.085990001805555,5,"Al,Ca,H,O,Si",CaAlSiHO5,mp-24402
5.2477,-3.121077801666666,2,"O,Si",SiO2,mp-561291
5.2489,-3.210481965714286,4,"Al,Li,O,Si",LiAlSiO4,mp-18220
5.2494,-3.240721280196361,5,"Li,Na,O,Si,Zr",NaLiZr(Si2O5)3,mp-15543
5.254399999999999,-2.120794075208334,4,"Li,N,O,Si",LiSiNO,mp-6015
5.2544,-2.616900460704762,4,"Li,O,P,Si",Li10Si(PO6)2,mp-696125
5.2544,-1.9813479344999991,4,"O,Rb,S,Si",Rb2Si(S2O7)3,mp-1020711
5.2562,-3.2729136826704552,5,"Al,Ca,H,O,Si",Ca2Al3Si3HO13,mp-23915
5.2626,-0.606059016388888,3,"H,O,Si",Si2H6O,mp-27949
5.266500000000001,-3.325532635909091,3,"Al,O,Si",Al2Si2O7,mp-755043
5.269699999999999,-1.9828718401436791,4,"Cs,O,S,Si",Cs2Si(S2O7)3,mp-1182737
5.271800000000001,-3.729584180147058,4,"Er,F,O,Si",Er3Si3O10F,mp-542038
5.2743,-3.718324769999999,4,"Dy,F,O,Si",Dy3Si3O10F,mp-16164
5.274999999999999,-3.402774547261903,4,"Li,O,Si,Y",LiYSiO4,mp-558941
5.2785,-1.843777925576922,5,"F,H,Ni,O,Si",SiNiH12(OF)6,mp-40144
5.281600000000001,-2.814538871857144,4,"H,Mg,O,Si",Mg10Si3(H2O9)2,mp-695890