band_gap,formation_energy_per_atom,nelements,elements,formula,material_id
1.660299999999999,-2.500991598546521,6,"Na,O,S,Sc,Si,Sn",Na6Sc4Si5Sn4S7O48,mp-2716035
1.6612,-2.858896840034013,4,"Cr,Li,O,Si",Li2Cr5(Si2O5)6,mp-765349
1.661499999999999,-2.422931887247687,6,"Mg,Na,O,S,Si,Sn",Na14Mg5Si6Sn3(SO8)6,mp-2714317
1.661799999999999,-2.515150979333333,4,"Fe,Li,O,Si",Li3Fe2(SiO4)2,mp-754087
1.662399999999999,-2.573871858248565,6,"Ge,La,Na,O,S,Si",Na3LaSi2GeSO12,mp-2714425
1.662999999999999,-2.513169651617981,6,"Al,Na,O,S,Si,Ta",Na2Ta2Al6Si3(S3O16)3,mp-2716282
1.6643999999999992,-2.7432526122289542,6,"Mg,Na,O,S,Si,Ti",Na6MgTi7Si6(SO8)6,mp-2714718
1.6666,-2.690793060476491,6,"Na,O,P,Si,Ti,Zn",Na7Ti2Zn2SiP5O24,mp-2715630
1.6672,-2.744102615379827,6,"Mg,Na,O,S,Si,Ti",Na10Mg2Ti6Si7S5O48,mp-2715928
1.667799999999999,-2.098044273700981,5,"In,Nb,O,S,Si",NbIn3SiS5O24,mp-2712892
1.6716000000000002,-2.73087457758785,6,"Ge,Na,O,P,Si,Y",Na3YSiGe(PO6)2,mp-2715249
1.671799999999999,-2.112807723118592,5,"In,Na,O,S,Si",Na6In8Si3(S3O16)3,mp-2713837
1.673,-2.599524241102941,5,"Nb,O,S,Sc,Si",Sc3NbSiS5O24,mp-2712901
1.6741000000000001,-2.266413118231205,6,"Mg,Na,O,S,Si,Sn",Na6Mg6SiSn2S11O48,mp-2713622
1.6776,-2.39673552490974,6,"Mg,Na,O,S,Si,Sn",Na10Mg2Si7Sn6S5O48,mp-2716017
1.6782,-2.363251942222222,4,"La,N,O,Si",La3SiN3O2,mp-1223119
1.6789,-2.640022327115384,4,"Fe,Li,O,Si",Li3FeSi2O7,mp-758766
1.6790999999999991,-2.500551179961101,6,"Ca,Na,O,S,Si,Sn",Na14Ca2Si9Sn6(SO16)3,mp-2714635
1.6803,-2.883879410166665,4,"Cr,Li,O,Si",Li2Cr2(Si2O5)3,mp-773023
1.6817000000000002,-2.79319698485273,6,"Mg,Na,Nb,O,S,Si",Na18Mg4Nb8Si15(SO24)3,mp-2713999
1.6822,-3.122948169666666,5,"Cu,Ho,Li,O,Si",LiHo2Cu(SiO3)4,mp-1235972
1.682599999999999,-2.83956232859375,4,"O,Si,V,Zn",VZn(Si2O5)2,mp-1043518
1.6829,-1.519421357357142,3,"H,O,Si",Si2H2O3,mp-1179527
1.6831,-2.492280119429392,6,"Ca,Ge,Na,O,S,Si",Na4CaSi2GeSO12,mp-2714568
1.6832,-2.673897440951617,6,"Ca,Na,O,S,Si,Ta",Na42Ca16Ta8Si21(S5O48)3,mp-2715815
1.6843,-2.316437476619143,6,"In,Na,O,S,Si,Sn",Na10In4Si7Sn4S5O48,mp-2716039
1.6845999999999992,-2.888747536808823,5,"Fe,H,Mg,O,Si",Mg21FeSi12(HO16)3,mp-743959
1.6853,-2.563196617003759,6,"Ge,Na,O,S,Sc,Si",Na10Sc4Si7Ge4S5O48,mp-2715919
1.6859000000000002,-2.565668849289764,6,"Na,O,S,Si,Sn,Ti",Na6Ti4Si7Sn4S5O48,mp-2712930
1.6863000000000001,-2.447273766363541,6,"Mg,Na,O,S,Si,Sn",Na14Mg4Si7Sn4S5O48,mp-2715757
1.686799999999999,-2.713851170857843,5,"Nb,O,S,Sc,Si",ScNb3Si3(SO8)3,mp-2713929
1.6904,-2.762121592168144,6,"La,Na,O,S,Si,Ta",Na6La6Ta2Si5S7O48,mp-2716047
1.6939000000000002,-2.62687145627451,5,"La,Nb,O,S,Si",LaNbSi(SO6)2,mp-2713430
1.6951,-2.924183115625,4,"Mg,O,Si,V",Mg30VSiO32,mp-1036757
1.6954999999999991,-2.9347247015686273,4,"Li,O,Si,V",Li2V(Si2O5)2,mp-766408
1.6962000000000002,-2.513904234333333,4,"Fe,Li,O,Si",Li3Fe2(SiO4)2,mp-1308156
1.6964000000000001,-2.522604070686275,5,"Ca,Nb,O,S,Si",Ca2Nb4Si3(SO6)6,mp-2713449
1.697299999999999,-2.749264152626672,6,"La,Na,O,P,Si,Sn",Na4LaSi2SnPO12,mp-2715643
1.6990999999999992,-2.8062640909211822,6,"Mg,Na,Nb,O,P,Si",Na3MgNbSi(PO6)2,mp-2715491
1.6996,-2.494050410999999,4,"Fe,Li,O,Si",Li3Fe2(SiO4)2,mp-760096
1.7001,-2.8154644731,4,"Li,Ni,O,Si",Li3Si6NiO15,mp-757292
1.701899999999999,-2.459070840520663,6,"Mg,Na,O,S,Si,Sn",Na8Mg3Si3Sn(SO8)3,mp-2714921
1.702399999999999,-2.754753461260486,6,"Ca,Na,O,S,Si,Ti",Na6CaTi7Si6(SO8)6,mp-2714789
1.7030999999999992,-2.159947538414015,6,"Na,Nb,O,S,Si,Zn",Na30Nb4Zn20Si9(S3O16)9,mp-2714854
1.7039,-2.537608858515742,4,"Mn,O,Si,Zn",Mn2Zn3(Si2O7)2,mp-1258846
1.7041,-2.830996889587849,6,"Ca,Na,Nb,O,P,Si",Na3CaNbSi(PO6)2,mp-2715291
1.7059000000000002,-2.605215106736649,6,"Ge,Mg,Na,O,P,Si",Na4MgSiGe(PO6)2,mp-2714594
1.7062,-2.841348297371486,5,"Ag,Al,K,O,Si",K6Al11Si13Ag5O48,mp-1248154
1.7066,-2.4925535998469392,4,"Fe,O,P,Si",Fe3SiP5O19,mp-555031
1.706999999999999,-2.67760292475,4,"Li,O,Si,V",Li3VSiO5,mp-766229
1.7073,-2.0922146075,4,"Fe,Mg,O,Si",MgFe(SiO2)2,mp-1222202
1.7078000000000002,-2.127252739014706,5,"In,O,S,Si,Ta",TaIn3SiS5O24,mp-2713080
1.7088,-2.508360854988758,6,"Ca,Na,O,S,Si,Ta",Na12Ca10Ta2Si3(S5O24)3,mp-2713517
1.709899999999999,-2.5982019042111393,6,"Na,Nb,O,S,Si,Zn",Na8Nb2Zn2Si5SO24,mp-2716172
1.7102,-2.842028956111111,4,"Fe,Li,O,Si",Li2Fe(Si2O5)3,mp-757460
1.7103000000000002,-2.3721118097068983,6,"Ge,Mg,Na,O,S,Si",Na6Mg3Si2Ge(SO6)4,mp-2712786
1.7107,-2.335240984722222,4,"Fe,Li,O,Si",Li7Fe3(SiO6)2,mp-753111
1.7114,-2.02858767771098,6,"Ge,Na,O,S,Si,Zn",Na4Zn3SiGeS5O24,mp-2713391
1.7123,-2.56626644229218,6,"Ca,Fe,H,Mn,O,Si",Ca2MnFeSi4(HO3)5,mp-1227867
1.714,-2.453562087998564,6,"Ca,Ge,Na,O,S,Si",Na6Ca3Si2Ge(SO6)4,mp-2712601
1.7146,-2.699480544999223,6,"Na,O,S,Si,Ti,Zn",Na6Ti7ZnSi6(SO8)6,mp-2714648
1.7158,-2.263156861740197,5,"Ge,O,S,Sc,Si",Sc2SiGe2S5O24,mp-2713011
1.7165,-2.262731485099777,6,"Al,Ga,Na,O,S,Si",Na2Al2Ga2SiS5O24,mp-2714575
1.7181000000000002,-2.712400151696999,6,"Na,Nb,O,S,Sc,Si",Na2Sc3NbSi2(SO6)4,mp-2712531
1.7181000000000002,-2.602430832333334,4,"Co,Li,O,Si",LiCo(SiO3)2,mp-755994
1.718699999999999,-2.746211100205004,6,"Na,O,S,Si,Ti,Zn",Na14Ti6Zn2Si9(SO16)3,mp-2714717
1.7194999999999991,-2.728733747680023,6,"Ca,Na,O,S,Si,Ta",Na6Ca4Ta8Si9(SO8)9,mp-2713442
1.7211999999999992,-2.457603751428571,4,"Fe,Li,O,Si",LiFeSiO4,mp-859102
1.7215,-2.370469428988666,6,"Ga,Na,O,S,Sc,Si",Na2Sc2Ga2SiS5O24,mp-2715743
1.721799999999999,-1.9959032685833331,5,"Al,H,Li,O,Si",LiAlSiH2O5,mp-555706
1.722799999999999,-2.8155926422250652,6,"Mg,Na,Nb,O,P,Si",Na5Mg2Nb2SiP5O24,mp-2715858
1.7254,-2.391002638402777,2,"O,Si",SiO2,mp-683953
1.7255,-2.70754007347773,6,"Ca,Na,O,S,Si,Zr",Na6Ca2Zr2Si3(SO8)3,mp-2716154
1.7255,-2.714002249074073,4,"Li,O,Si,V",Li2VSiO5,mp-766038
1.7280000000000002,-2.862925160144032,5,"Ag,Al,Ca,O,Si",Ca2Al11Si13Ag7O48,mp-706809
1.728299999999999,-2.20054699304023,6,"Na,Nb,O,S,Si,Zn",Na9NbZn5Si3(SO6)6,mp-2712600
1.7285,-2.382747395984847,5,"C,Li,O,Si,V",LiVSiCO7,mp-770349
1.7289999999999992,-2.634386385882353,5,"Ca,O,Si,V,Zn",CaV2Zn2(SiO5)2,mp-1233321
1.732199999999999,-2.6024104686878733,6,"Ge,Mg,Na,O,P,Si",Na7Mg2SiGe2P5O24,mp-2715692
1.7325,-2.491090529979886,6,"Ge,Na,Nb,O,S,Si",Na2Nb4Si7Ge4S5O48,mp-2715773
1.733,-2.8303479143055563,4,"Li,O,Si,V",Li2VSi2O7,mp-765964
1.734999999999999,-2.91206067451499,6,"Hf,Na,O,S,Si,Ti",Na6Hf4Ti4Si7S5O48,mp-2712849
1.7355,-2.147140711625,4,"O,Sb,Si,Zn",Zn3Si3(SbO6)2,mp-1154534
1.735599999999999,-2.281419429497925,6,"Ga,Na,Nb,O,S,Si",Na2NbGa3Si2(SO6)4,mp-2712620
1.7363,-3.069752493043478,5,"Ca,O,Si,Sr,V",Sr2CaV2(Si2O7)2,mp-1233650
1.7367,-2.538636898098933,6,"Hf,Na,O,S,Si,Sn",Na2Hf4Si5Sn4S7O48,mp-2716199
1.7368000000000001,-2.603577032701723,5,"Ca,H,Mn,O,Si",Ca2Mn3Si3H3O14,mp-1214361
1.7369999999999992,-2.360321507206897,6,"Na,O,S,Si,Sn,Zn",Na6ZnSi4Sn3(SO12)2,mp-2714536
1.7381000000000002,-3.126095836689654,8,"Ca,F,Fe,Mn,Na,O,Si,Zr",Na2Ca2Zr2MnFeSi4O17F,mp-1221915
1.7383000000000002,-2.23540928,4,"Fe,Li,O,Si",Li9Fe5(SiO8)2,mp-767668
1.7392,-2.82593931922598,6,"Na,O,S,Sc,Si,Ti",Na10Sc4Ti4Si7S5O48,mp-2715832
1.739399999999999,-2.116070482303922,5,"Ga,Nb,O,S,Si",NbGa3SiS5O24,mp-2713013
1.739599999999999,-1.99488781,2,"O,Si",SiO2,mp-10064
1.74,-2.206910140483458,6,"Ga,Ge,Na,O,S,Si",Na6Ga4Si5Ge4S7O48,mp-2715924
1.7409,-2.352775621176471,5,"Nb,O,S,Si,Zn",Nb4Zn2Si3(SO6)6,mp-2713435
1.7417,-2.654677546352049,6,"Al,Na,O,S,Si,Ti",Na5TiAl3Si3(SO8)3,mp-2716559
1.7445,-2.403494450359584,6,"Na,O,S,Si,Sn,Y",Na3YSi3Sn3(SO8)3,mp-2714731
1.745099999999999,-2.380477382916668,5,"O,S,Si,Ti,Zn",Ti3ZnSiS5O24,mp-2713008
1.7456,-2.292773181078431,5,"In,Nb,O,S,Si",NbInSi(SO6)2,mp-2713193
1.7469000000000001,-2.615708449690664,6,"Al,Na,O,S,Si,Ta",Na6Ta2Al6Si5S7O48,mp-2716095
1.7472999999999992,-2.341349220854406,6,"Na,O,S,Si,Ta,Zn",NaTaZnSi(SO6)2,mp-2712612
1.747799999999999,-2.744558203206077,6,"Na,Nb,O,S,Si,Ti",NaTi3NbSi3(SO8)3,mp-2713767
1.7481,-2.5972754679411763,5,"Mg,O,Si,V,Zn",MgV2Zn2(SiO5)2,mp-1234721
1.7483,-2.643764714171182,6,"Na,Nb,O,P,Si,Zn",Na3NbZnSi(PO6)2,mp-2715441
1.7485,-2.764999074310696,6,"Al,Na,Nb,O,S,Si",Na14Nb2Al6Si9(SO16)3,mp-2714887
1.7498,-2.317788670678971,6,"Ga,Ge,Na,O,S,Si",Na10Ga4Si7Ge4S5O48,mp-2715947
1.750699999999999,-2.683947611720146,6,"Na,O,S,Sc,Si,Y",Na2Y2Sc2SiS5O24,mp-2714399
1.7510000000000001,-2.791131471145834,4,"Li,O,Si,V",Li2V2(SiO3)3,mp-1267368
1.7516999999999991,-2.38915353847826,4,"O,Sb,Si,Zn",Zn3Si4(SbO7)2,mp-1254678
1.7523,-2.593364523333333,4,"Li,O,Si,V",Li2VSiO4,mp-753369
1.7525,-2.9199443545312502,4,"Mg,O,Si,Sr",SrMg30SiO32,mp-1039906
1.7527,-2.683252514588123,6,"Ca,Na,Nb,O,S,Si",Na12Ca4Nb2Si6(SO12)3,mp-2714532
1.7528000000000001,-2.549957767469054,5,"B,Li,Mn,O,Si",Li3MnSiBO7,mp-755970
1.753499999999999,-2.901605204868421,4,"Mg,O,Si,V",Mg2V2(SiO4)3,mp-1250278
1.7544,-2.936076515678879,4,"Al,Mn,O,Si",MnAlSiO5,mp-1210817
1.7545000000000002,-2.8527851495754923,6,"Ca,Na,Nb,O,P,Si",Na5Ca2Nb2SiP5O24,mp-2715920
1.755199999999999,-2.774515048690475,4,"Li,O,Si,V",LiVSiO4,mp-753223
1.7569,-2.857954193879506,6,"Ca,Na,O,P,Si,Ti",Na4CaTiSi(PO6)2,mp-2714438
1.756999999999999,-2.303530261607443,6,"Na,O,S,Si,Sn,Zn",Na14Zn4Si7Sn4S5O48,mp-2715625
1.757299999999999,-2.406757481655425,6,"Mg,Na,O,S,Si,Ta",Na12Mg10Ta2Si3(S5O24)3,mp-2713355
1.7582,-3.033449140297629,8,"Fe,K,Li,Mn,Na,O,Si,Ti",K2Na4Li2Ti4Mn3Fe(SiO3)16,mp-1224604
1.7596,-3.258592899687499,4,"O,Pr,Si,Te",Pr2SiTeO4,mp-541996
1.7605,-2.862228231939905,6,"Ca,Na,O,P,Si,Ti",Na7Ca2Ti2SiP5O24,mp-2715607
1.7610000000000001,-2.7749593929503593,6,"Na,Nb,O,P,Si,Zn",Na21Nb8Zn4Si15(PO24)3,mp-2714325
1.7610000000000001,-2.789736973574271,6,"La,Na,O,S,Si,Ti",Na5La3TiSi3(SO8)3,mp-2713143
1.7612,-2.586274620920765,6,"Na,O,S,Si,Ta,Zn",Na6Ta8Zn4Si9(SO8)9,mp-2713336
1.761299999999999,-2.362722345665231,6,"Ca,Ga,Na,O,S,Si",Na3CaGaSi(SO6)2,mp-2712580
1.763,-3.383880043,4,"Ce,O,Si,Sr",Sr2CeSiO6,mp-1521551
1.763,-2.8222038178032793,6,"Na,Nb,O,S,Si,Y",Na6Y4Nb4Si7S5O48,mp-2713032
1.7632999999999992,-2.462228747765151,4,"Fe,Li,O,Si",Li4Fe3(SiO4)3,mp-1177429
1.7636,-2.838083428634648,6,"Na,Nb,O,S,Si,Zr",NaZr3NbSi3(SO8)3,mp-2713813
1.764199999999999,-2.827539880357142,4,"Li,O,Si,V",Li9V5(Si5O16)2,mp-863437
1.7675,-2.5603982136764722,5,"Ga,Nb,O,S,Si",Nb3GaSi3(SO8)3,mp-2713840
1.7681,-2.86954890670635,5,"Al,O,Si,Sr,Tl",SrAl7Tl5Si5O24,mp-1173192
1.7691999999999992,-2.65899062588064,6,"Na,Nb,O,P,Si,Zn",Na4NbZnSi2PO12,mp-2715754
1.77,-2.444072875539592,6,"Na,O,S,Sc,Si,Sn",NaScSiSn(SO6)2,mp-2712559
1.771099999999999,-3.044962357826087,5,"Ba,Ca,O,Si,V",Ba2CaV2(Si2O7)2,mp-1233426
1.771599999999999,-1.554879431785713,3,"H,O,Si",Si2H2O3,mp-627334
1.7716,-2.5030343848809533,4,"Fe,Li,O,Si",LiFeSiO4,mp-766664
1.7735,-2.661266483791666,5,"H,Li,O,Si,V",LiVSi4(HO6)2,mp-761158
1.7738,-2.544501192083333,4,"Cr,Li,O,Si",Li2CrSiO4,mp-762870
1.774099999999999,-2.700012112625,4,"O,Si,V,Zn",VZn(SiO3)2,mp-1041874
1.774099999999999,-2.4801703069690753,6,"Mg,Na,O,S,Si,Sn",Na4MgSi2SnSO12,mp-2714600
1.7771999999999992,-2.818347893944842,6,"Mg,Na,O,S,Si,Ti",Na14Mg2Ti6Si9(SO16)3,mp-2714646
1.7772000000000001,-2.745854855877806,6,"Mg,Na,Nb,O,S,Si",Na8Mg2Nb2Si5SO24,mp-2715716
1.7777,-2.085947932730253,6,"Ge,Na,O,S,Si,Zn",Na10Zn6Si3Ge2(S3O16)3,mp-2714903
1.778,-2.438458537584155,6,"Ca,In,Na,O,S,Si",Na8Ca2In2Si3(SO8)3,mp-2715207
1.7794,-2.723420976419221,6,"La,Na,Nb,O,S,Si",Na2La3NbSi2(SO6)4,mp-2712664
1.7805,-2.663046531405468,6,"Na,O,S,Si,Ti,Zn",Na10Ti6Zn2Si7S5O48,mp-2716019
1.7821,-2.790268568826629,6,"Al,Na,Nb,O,S,Si",Na2Nb3AlSi4(SO12)2,mp-2715538
1.7828,-3.058014943333333,4,"Ba,Co,O,Si",Ba2CoSi2O7,mp-562216
1.783399999999999,-2.899798047968749,4,"Mg,Ni,O,Si",Mg30SiNiO32,mp-1036956
1.7846000000000002,-2.539442249583333,5,"Ba,Cl,Fe,O,Si",Ba4Fe12Si8ClO35,mp-1228666
1.7850000000000001,-2.662477445615864,6,"Na,Nb,O,P,Si,Zn",Na7Nb2Zn2Si3(PO8)3,mp-2714996
1.7852000000000001,-2.776079211436275,5,"O,S,Si,Ta,Ti",Ta2Ti2Si3(SO8)3,mp-2713782
1.785299999999999,-3.105086537608023,7,"Al,B,Ca,Fe,H,O,Si",Ca2Al2FeSi4BHO16,mp-24392
1.785499999999999,-3.062456279999999,4,"O,Pb,Si,U",USiPbO6,mp-726051
1.7861999999999991,-2.440907069905583,6,"Na,Nb,O,S,Si,Zn",Na12Nb2Zn4Si6(SO12)3,mp-2714365
1.7872,-2.7212669676179813,6,"Na,O,S,Si,Ta,Y",Na2Y6Ta2Si3(S3O16)3,mp-2716459
1.7875,-2.750479923678056,6,"Ge,Na,O,P,Si,Y",Na5Y2SiGe2P5O24,mp-2715974
1.7878,-3.265848502708333,4,"Nd,O,Si,Te",Nd2SiTeO4,mp-17959
1.7888000000000002,-2.3531922359174873,6,"Na,O,S,Si,Ti,Zn",Na8TiZn3Si3(SO8)3,mp-2715109
1.7904,-2.6432324791421573,5,"La,Nb,O,S,Si",La3NbSiS5O24,mp-2713042
1.7911000000000001,-2.82389961495094,5,"Na,Nb,O,Si,Zn",Na7Nb3Zn(SiO4)6,mp-2712832
1.7923,-3.020195635902778,4,"Li,O,Si,V",Li2V(Si2O5)3,mp-775339
1.7930000000000001,-2.64774075826087,4,"O,Si,V,Zn",V2Zn3(Si2O7)2,mp-1262955
1.7932000000000001,-2.861254151953124,4,"Mg,O,Si,Sn",Mg30SiSnO32,mp-1036665
1.7953000000000001,-2.344898503081898,6,"Ge,In,Na,O,S,Si",Na3InSi2GeSO12,mp-2714343
1.795399999999999,-2.8222811077259182,6,"Mg,Na,O,S,Si,Ta",Na6Mg4Ta20Si21(S5O48)3,mp-2715797
1.7958,-2.766303603275862,5,"Al,Mn,Na,O,Si",Na4MnAl3Si3O16,mp-694964
1.7962,-2.543759509334809,6,"Ge,Na,O,S,Si,Ti",Na6Ti4Si7Ge4S5O48,mp-2713088
1.7991000000000001,-2.755720624833334,4,"Fe,Li,O,Si",LiFe(SiO3)2,mp-510708
1.799999999999999,-3.164641270666667,5,"Cu,Ho,Li,O,Si",LiHo2Cu(SiO3)4,mp-1235309
1.8002,-2.757347232755305,6,"Al,C,Ca,Na,O,Si",Na3CaAl3Si3CO15,mp-1253229
1.8005,-2.548404781677152,6,"Ga,Na,Nb,O,S,Si",Na6Nb4Ga4Si7S5O48,mp-2712952
1.8008000000000002,-2.621540029705881,5,"Mg,O,Si,V,Zn",MgV2Zn2(SiO5)2,mp-2215892
1.8018,-2.8209458379441332,6,"Ca,Na,Nb,O,P,Si",Na4CaNbSi2PO12,mp-2716257
1.8027000000000002,-2.79454603543584,6,"Mg,Na,Nb,O,P,Si",Na21Mg8Nb4Si3(P5O24)3,mp-2715629
1.803099999999999,-2.415256608666666,5,"Bi,Fe,Mg,O,Si",MgFe2Si2BiO9,mp-2232393
1.8034999999999992,-2.779574854289592,6,"Ca,Na,Nb,O,S,Si",Na3CaNb5Si6(SO12)3,mp-2715820
1.8045,-2.894371363181818,3,"O,Si,V",V2Si2O7,mp-1273857
1.8048000000000002,-2.582264737224458,6,"Na,Nb,O,P,Si,Zn",Na21Nb4Zn8Si3(P5O24)3,mp-2715775
1.8052000000000001,-2.445584266517981,6,"In,Na,O,S,Si,Ta",Na2Ta4In4Si5S7O48,mp-2716212
1.8062,-2.937337974551072,6,"La,Na,Nb,O,P,Si",Na5La2Nb2Si3(PO8)3,mp-2714066
1.8075,-2.609917014498563,6,"Ge,Na,O,S,Si,Y",Na3YSi2GeSO12,mp-2714398
1.807599999999999,-0.779087258125001,5,"Al,N,O,Si,Sr",SrAlSi5N7O2,mp-695285
1.808,-2.309700926813219,6,"Ga,La,Na,O,S,Si",Na2La4Ga4SiS11O48,mp-2714312
1.808399999999999,-2.7222382358333332,3,"Cr,O,Si",Cr(SiO3)2,mp-1042355
1.8098,-2.705763685180024,6,"Mg,Na,O,S,Si,Ta",Na6Mg4Ta8Si9(SO8)9,mp-2713128
1.809899999999999,-2.557269523030302,3,"In,O,Si",In2Si2O7,mp-19784
1.809899999999999,-2.607556741603448,5,"Ca,Fe,Na,O,Si",Na3CaFe4(SiO3)8,mp-1252316
1.81,-2.667246739477731,6,"Mg,Na,O,S,Si,Zr",Na6Mg2Zr2Si3(SO8)3,mp-2716268
1.8101999999999991,-2.646085727866091,6,"Na,Nb,O,P,Si,Zn",Na5Nb2Zn2SiP5O24,mp-2715870
1.810799999999999,-2.441203550249999,4,"O,Pb,Si,U",USiPbO7,mp-728246
1.811299999999999,-2.61058824641712,6,"Na,Nb,O,S,Si,Zn",Na6Nb4Zn2Si6(SO12)3,mp-2712752
1.8124999999999991,-2.7957048054152303,6,"Ca,Na,O,S,Si,Ti",Na6CaTi3Si4(SO12)2,mp-2714514
1.8127,-2.5280554483438182,6,"In,Na,Nb,O,S,Si",Na6Nb4In4Si7S5O48,mp-2713003
1.812799999999999,-2.699663980362812,5,"Li,O,P,Si,V",Li4V2Si(PO6)2,mp-770404
1.8131,-2.579885609012306,6,"Ga,Na,O,S,Si,Ti",Na10Ti4Ga4Si7S5O48,mp-2715831
1.8135,-2.290579543333334,5,"Bi,Fe,Mg,O,Si",MgFe2Si2BiO9,mp-2232245
1.8147000000000002,-2.235393401274631,6,"Ge,Na,O,S,Si,Zn",Na8Zn3Si3Ge(SO8)3,mp-2714955
1.8167,-2.732377932867606,6,"Na,Nb,O,S,Si,Zn",Na42Nb16Zn8Si33(SO48)3,mp-2714509
1.8169,-2.514296787311063,6,"Na,O,S,Si,Zn,Zr",Na6Zr2Zn2Si3(SO8)3,mp-2716274
1.8189000000000002,-2.8181453694370022,6,"Mg,Na,Nb,O,P,Si",Na7Mg2Nb2Si3(PO8)3,mp-2714801
1.8193000000000001,-2.389202364432647,6,"Ge,Na,O,S,Si,Zn",Na14Zn2Si9Ge6(SO16)3,mp-2714860
1.8202,-2.9405389525637373,6,"La,Na,Nb,O,P,Si",Na2LaNbSi(PO6)2,mp-2712710
1.8206000000000002,-2.563757862187501,4,"O,Si,V,Zn",VZnSiO5,mp-1046716
1.8216,-2.912890090156249,4,"Mg,O,Si,Zn",Mg30ZnSiO32,mp-1037585
1.822499999999999,-1.945295568163418,5,"Al,H,Na,O,Si",Na2Al2Si3(HO3)4,mp-677670
1.8226,-2.6131421076470582,4,"Li,O,Si,V",Li6V(SiO4)2,mp-765250
1.823399999999999,-2.13782438993774,6,"Ga,Ge,Na,O,S,Si",NaGaSiGe(SO6)2,mp-2712713
1.8234,-2.597905871666665,5,"H,O,Pb,Si,U",USiH2PbO7,mp-1202774
1.8235000000000001,-2.4470902807971022,4,"Fe,Li,O,Si",Li10Fe(SiO5)2,mp-758900
1.8238999999999992,-2.9305943853333343,3,"Cr,O,Si",Cr(Si2O5)2,mp-779017
1.824199999999999,-2.971451603260869,5,"Mg,O,Si,Sr,V",Sr2MgV2(Si2O7)2,mp-1234020
1.8249,-2.764855649354185,6,"Ca,Na,O,S,Si,Ti",Na10Ca2Ti6Si7S5O48,mp-2715855
1.8254000000000001,-2.515216248666667,4,"Fe,Li,O,Si",Li3Fe2(SiO4)2,mp-1303127
1.8263,-2.563654672962849,6,"Ca,Ge,Na,O,P,Si",Na6CaSi2Ge3(PO6)4,mp-2715244
1.8269000000000002,-2.649603126229092,6,"Mg,Na,O,S,Si,Ta",Na6Mg8Ta16Si15(S7O48)3,mp-2716218
1.8290000000000002,-2.9122803465625,4,"Cr,Mg,O,Si",Mg30CrSiO32,mp-1039892
1.829699999999999,-1.5518443036428562,3,"H,O,Si",Si2H2O3,mp-627314
1.829699999999999,-2.710460916882184,6,"Na,Nb,O,S,Si,Zn",Na3Nb5ZnSi6(SO12)3,mp-2715703
1.83,-2.227579560843819,6,"Ga,Na,O,S,Si,Sn",Na6Ga4Si5Sn4S7O48,mp-2716103
1.830099999999999,-2.824972396671181,6,"Ca,Na,Nb,O,P,Si",Na3CaNbSi(PO6)2,mp-2715418
1.8301999999999992,-2.8492080635659223,6,"Ca,Na,Nb,O,P,Si",Na21Ca8Nb4Si3(P5O24)3,mp-2715746
1.830299999999999,-2.455611116904761,4,"Fe,Li,O,Si",LiFeSiO4,mp-759064
1.8329,-1.746196499615385,5,"Ba,Cl,N,O,Si",Ba3Si3N5ClO,mp-677613
1.834099999999999,-2.590410697174699,6,"Na,O,S,Sc,Si,Sn",Na10Sc4Si7Sn4S5O48,mp-2715927
1.8353000000000002,-2.30294365953941,6,"Ge,Na,Nb,O,S,Si",NaNbSi3Ge3(SO8)3,mp-2713842
1.8354,-2.243099008734949,6,"Na,O,S,Si,Sn,Zn",Na8Zn3Si3Sn(SO8)3,mp-2715050
1.8355000000000001,-2.726660244932267,6,"Al,Na,Nb,O,S,Si",Na2Nb6Al2Si7S5O48,mp-2715801
1.835799999999999,-2.729421948637932,4,"Fe,Na,O,Si",NaFe(SiO3)2,mp-21867
1.8367,-2.889682682272728,3,"O,Si,V",V2Si2O7,mp-1281584
1.8371,-2.652261991337849,6,"Na,Nb,O,P,Si,Zn",Na3NbZnSi(PO6)2,mp-2715454
1.8384,-2.390585369717692,6,"Al,Na,O,S,Si,Sn",Na6Al4Si5Sn4S7O48,mp-2715986
1.839,-2.505648782034272,6,"In,Na,Nb,O,S,Si",Na14Nb2In6Si9(SO16)3,mp-2714761
1.8397000000000001,-2.8452774814999993,4,"Be,Cr,O,Si",Be3Cr2(SiO4)3,mp-1047903
1.8409,-2.7728706672678003,6,"La,Na,O,P,Si,Sn",Na5La2SiSn2P5O24,mp-2716081
1.8410000000000002,-2.870370647632352,5,"Fe,H,Mg,O,Si",Mg21FeSi12(HO16)3,mp-695496
1.8413,-2.384841504621212,5,"C,Li,O,Si,V",LiVSiCO7,mp-770650
1.8417999999999992,-2.561828896991869,4,"Fe,Li,O,Si",Li5Fe5Si7O24,mp-767276
1.8421999999999992,-3.1661962626,5,"Be,Fe,O,Si,Y",Y5Be6Fe3(SiO5)6,mp-1266607
1.8425,-2.318090489833334,4,"Ca,Fe,O,Si",CaFe3Si2O9,mp-1238485
1.8429000000000002,-2.36539490080721,5,"C,Na,O,Si,V",NaVSiCO7,mp-772044
1.8431000000000002,-2.840281942761814,6,"Na,Nb,O,S,Sc,Si",Na2ScNb3Si4(SO12)2,mp-2715541
1.8442999999999992,-2.9115142377777783,3,"O,Si,V",V(SiO3)2,mp-753907
1.8462,-2.251638716651193,6,"Ge,In,Na,O,S,Si",Na5In3Si3Ge(SO8)3,mp-2713154
1.8464,-2.5542296238738382,6,"Na,O,S,Si,Ti,Zn",Na4TiZnSi2SO12,mp-2714597
1.8468,-3.022759674578545,4,"Al,Na,O,Si",Na8Al6Si6O25,mp-1173749
1.847,-2.349551331470588,5,"Fe,Mg,O,Si,Zn",MgZn2Fe2(SiO5)2,mp-2229218
1.8487,-2.742862728259226,6,"Ca,Na,Nb,O,S,Si",Na6Ca2Nb4Si6(SO12)3,mp-2712758
1.851399999999999,-2.9059517118750002,4,"Fe,Mg,O,Si",Mg30FeSiO32,mp-1037606
1.851399999999999,-3.289743887258619,7,"Ca,F,Na,Nb,O,Si,Zr",Na2Ca4ZrNbSi4O17F,mp-1221911
1.851399999999999,-2.8528908448841572,6,"Ca,Na,Nb,O,P,Si",Na7Ca2Nb2Si3(PO8)3,mp-2714740
1.8518,-2.763876961660838,6,"Na,O,S,Sc,Si,Ta",Na2Sc4Ta4Si5S7O48,mp-2716160
1.8518,-2.383860566181109,6,"In,Na,O,S,Si,Ti",Na5TiIn3Si3(SO8)3,mp-2716327
1.8525,-2.413014405639798,6,"Na,O,S,Si,Ta,Zn",Na15Ta5Zn7Si9(SO8)9,mp-2713491
1.8533,-2.465076886360542,5,"O,P,Pb,Pd,Si",SiP4PdPbO14,mp-1194892
1.8535,-2.751328942914591,6,"La,Na,O,S,Si,Ta",Na2La2Ta2Si3(SO8)3,mp-2713502
1.854499999999999,-2.274393964166666,4,"Fe,Li,O,Si",Li4Fe2SiO7,mp-753109
1.8548,-1.425238947642856,3,"H,O,Si",Si2H2O3,mp-1179424