band_gap,formation_energy_per_atom,nelements,elements,formula,material_id
3.8525,-2.9287432913074722,5,"H,Mg,Na,O,Si",Na3Mg5Si8(HO8)3,mp-1221605
3.852999999999999,-3.154344903834565,5,"Na,O,P,Si,Ta",NaTa2Si2PO12,mp-2713211
3.8531,-2.468895151775222,4,"Cs,Li,O,Si",Cs2Li2SiO4,mp-504849
3.8537,-2.796526570344827,4,"Mg,Na,O,Si",Na2MgSiO4,mp-6426
3.8537999999999992,-3.098988449992753,5,"Ga,O,Si,Sr,Ta",Sr3TaGa3(SiO7)2,mp-16136
3.854999999999999,-2.7727095459666673,4,"Li,Ni,O,Si",Li2Si6Ni2O15,mp-850290
3.856199999999999,-2.791863296167547,6,"Hf,Na,O,P,Si,Zn",Na7Hf2Zn2SiP5O24,mp-2715741
3.8566000000000003,-3.08545489008699,6,"Hf,Na,O,P,Si,Y",Na4YHfSi2PO12,mp-2716132
3.8608000000000002,-3.375115192407407,3,"Ca,O,Si",Ca3SiO5,mp-1183642
3.862299999999999,-3.376845299166666,3,"O,Si,Zr",ZrSiO4,mp-1020588
3.862699999999999,-3.104646853103449,4,"Al,Fe,O,Si",Al4Fe2Si5O18,mp-1204107
3.8648,-2.979200649500881,6,"Ca,Hf,Na,O,P,Si",Na7Ca2Hf2SiP5O24,mp-2715640
3.8657,-2.692845917126435,3,"Na,O,Si",Na2SiO3,mp-4533
3.8662,-3.329089233125,5,"Al,Ba,Mg,O,Si",BaMg2Al6(Si3O10)3,mp-694056
3.8662,-3.424073574102564,4,"O,Si,Sr,Ti",Sr2Ti(SiO4)2,mp-1192641
3.8674,-3.096016039218749,4,"Ca,Fe,O,Si",CaFe(Si2O5)2,mp-1043643
3.8682,-2.9844644692857143,4,"Fe,Mg,O,Si",Mg3Fe(SiO4)2,mp-1222201
3.8686,-3.463876167000001,4,"Cl,La,O,Si",La3Si2Cl3O7,mp-555191
3.869099999999999,-2.593677798833053,6,"Al,Mg,Na,O,S,Si",Na7MgAl3Si3(SO8)3,mp-2714099
3.869399999999999,-3.026003468478448,6,"Ca,Na,O,Sc,Si,Zn",Na3CaSc3Zn(SiO3)8,mp-720987
3.8704,-2.734116832261905,4,"Li,Ni,O,Si",Li2Si3NiO8,mp-757113
3.871,-2.566086140069987,5,"Ga,Na,O,P,Si",Na7Ga4SiP5O24,mp-2715706
3.8716,-2.902049742827743,5,"Al,K,Na,O,Si",KNa6Al7Si9O32,mp-695648
3.8727,-1.538472271839081,5,"Al,Li,N,O,Si",LiAl3Si9(N7O)2,mp-695365
3.8736,-2.929580051957328,6,"Na,O,P,Si,Zn,Zr",Na7Zr3ZnSi3(PO8)3,mp-2714954
3.8743,-2.9963533053,4,"Cr,Li,O,Si",Li3Cr(Si2O5)3,mp-778011
3.8758,-3.245123312282608,5,"Al,N,Nd,O,Si",Nd3Al3Si3(NO6)2,mp-695170
3.8766,-2.712629385705328,4,"Na,O,Si,Zn",Na2Zn(SiO3)2,mp-6675
3.8792,-3.102870680937501,4,"Ba,Fe,O,Si",BaFe(Si2O5)2,mp-19165
3.8804,-2.911021666765936,4,"Be,Na,O,Si",Na2Be(SiO3)2,mp-560438
3.8805,-2.672576795486664,6,"Al,Na,O,S,Si,Y",Na10Y4Al4Si5S7O48,mp-2715075
3.883199999999999,-2.130606864645593,4,"Cs,H,O,Si",Cs2Si(HO2)2,mp-995230
3.883899999999999,-2.9735015216529233,6,"Al,Be,Br,Na,O,Si",Na8BeAl4Si7(BrO12)2,mp-43188
3.8857,-2.498531100528503,6,"Mg,Na,O,S,Sc,Si",Na6Mg4Sc4SiS11O48,mp-2713233
3.887599999999999,-2.8373910603065142,3,"Na,O,Si",Na2Si2O5,mp-557290
3.890199999999999,-2.560547070294117,4,"Fe,Li,O,Si",Li6Fe(SiO4)2,mp-753932
3.8914,-2.6541422200766283,6,"Al,Na,O,S,Si,Zr",NaZrAlSi(SO6)2,mp-2712687
3.8945,-2.061728268573993,4,"H,Na,O,Si",Na3SiH3O5,mp-707333
3.8946,-2.833314284998565,6,"Hf,Na,O,S,Si,Zn",Na6Hf3ZnSi4(SO12)2,mp-2714613
3.8947000000000003,-2.912567448403315,6,"Al,La,Na,O,P,Si",Na4LaAlSi(PO6)2,mp-2714351
3.8967,-2.6577134150833333,5,"C,N,O,Pr,Si",Pr2SiC(NO2)2,mp-1186715
3.897899999999999,-2.464400845000001,3,"Bi,O,Si",Si3(BiO3)4,mp-23331
3.8987,-3.181093632083333,4,"O,Si,Sr,Zn",Sr2ZnSi2O7,mp-1191240
3.9,-2.594502311902377,6,"Al,La,Na,O,S,Si",Na6La4Al4Si3(S3O16)3,mp-2713753
3.901,-2.814796660080682,6,"Al,Hf,Na,O,S,Si",Na10Hf4Al4Si7S5O48,mp-2715970
3.9046000000000003,-3.532447881166666,5,"Al,N,O,Si,Y",Y4AlSiNO8,mp-1020714
3.9049,-2.6964973925000013,3,"H,O,Si",Si4H2O9,mp-627867
3.9051,-2.314746918771746,6,"Na,O,S,Sc,Si,Zn",Na6Sc4Zn4SiS11O48,mp-2712544
3.9052000000000002,-2.9564740934444442,5,"Al,B,Fe,O,Si",Al3FeSiBO9,mp-1214903
3.9059,-2.938220684514426,6,"Hf,Mg,Na,O,P,Si",Na4HfMgSi(PO6)2,mp-2714592
3.9066,-2.67446673685907,5,"Al,H,Na,O,Si",Na2Al2Si3(HO3)4,mp-1173860
3.9074,-3.093759046491906,6,"Na,O,P,Sc,Si,Zr",Na25Zr11Sc5Si12(PO8)12,mp-693682
3.9083,-2.981407432031249,4,"Fe,Mg,O,Si",MgFe(Si2O5)2,mp-1043548
3.9101,-3.006550213705295,6,"Mg,Na,O,P,Si,Zr",Na7MgZr3Si3(PO8)3,mp-2714771
3.911999999999999,-2.809800856715686,4,"Li,Ni,O,Si",Li2Si4NiO10,mp-766687
3.9122000000000003,-3.081639833036231,5,"Ca,Ga,O,Si,Ta",Ca3TaGa3(SiO7)2,mp-6853
3.9135,-3.016377754673158,6,"La,Na,O,P,Sc,Si",Na4LaScSi(PO6)2,mp-2714528
3.9137,-2.988215369052408,6,"Na,O,S,Si,Y,Zr",Na8Y2Zr2Si5SO24,mp-2715531
3.916499999999999,-2.653259605905798,4,"Bi,Li,O,Si",Li4Si4Bi2O13,mp-756672
3.9167,-2.351899157857143,5,"Ba,N,O,Si,Sr",Ba3SrSi8(NO)8,mp-1228191
3.9207,-2.491166588178971,5,"Ca,Na,O,S,Si",Na10Ca8SiS11O48,mp-2713600
3.920999999999999,-2.991193113172484,6,"Hf,Na,O,S,Sc,Si",Na14Hf4Sc4Si9(SO16)3,mp-2715084
3.921299999999999,-2.619311841060605,4,"Li,Ni,O,Si",Li2Si2NiO6,mp-1986763
3.921999999999999,-2.760704525598591,6,"Al,Cl,F,H,O,Si",Al13Si5H14Cl(O17F2)2,mp-534982
3.9221,-2.954179862708334,5,"In,Li,O,Sc,Si",Li4ScIn3(SiO3)8,mp-1222575
3.9233000000000002,-2.869980218954023,4,"Cs,O,Si,Sn",Cs2Si3SnO9,mp-554359
3.9235,-2.734427540409092,4,"K,O,Si,Zn",K2Zn(SiO3)2,mp-555318
3.9238,-2.928538284665231,6,"Na,O,S,Si,Y,Zr",Na3YZrSi2SO12,mp-2714324
3.9239,-1.084040771923077,5,"C,Cl,Co,O,Si",CoSiC4Cl3O4,mp-562985
3.9253,-2.8232809145098052,5,"Hf,O,S,Si,Zr",HfZrSi(SO6)2,mp-2713208
3.9259,-3.399554825378787,4,"O,Pr,Si,Y",PrYSi2O7,mp-1180672
3.9263999999999992,-3.15372629240835,4,"Na,O,Si,Ta",Na2Ta2(SiO4)3,mp-2714429
3.927,-2.7114801562500013,5,"Hf,O,S,Sc,Si",Hf2Sc2SiS5O24,mp-2712847
3.928699999999999,-2.842703856254515,6,"Hf,In,Na,O,P,Si",Na3HfInSi(PO6)2,mp-2715245
3.932299999999999,-2.86664593946285,6,"Ga,Hf,Na,O,P,Si",Na3HfGaSi(PO6)2,mp-2715402
3.9353,-2.6680551528333343,3,"K,O,Si",K2SiO3,mp-15379
3.9356,-3.033305448448275,5,"Al,Ca,Na,O,Si",NaCaAlSi2O7,mp-686526
3.936,-2.953367389831896,6,"Hf,Na,O,S,Si,Y",Na3YHfSi2SO12,mp-2714540
3.9367,-2.9933632023594763,6,"Hf,Na,O,S,Si,Y",Na14Y4Hf4Si9(SO16)3,mp-2714865
3.937499999999999,-2.830690812124999,4,"Mg,Ni,O,Si",MgSi2NiO6,mp-1041887
3.937699999999999,-3.1218119205,3,"Mg,O,Si",MgSiO3,mp-556940
3.94,-3.076874673421182,6,"Hf,La,Na,O,P,Si",Na3LaHfSi(PO6)2,mp-2715408
3.940899999999999,-3.6689280596875,3,"O,Si,Y",Y2SiO5,mp-1179266
3.9418,-2.548374156499997,4,"Ni,O,Si,Zn",ZnSi2NiO6,mp-1258028
3.9421,-2.805288642303922,4,"Li,Ni,O,Si",Li2Si4NiO10,mp-766697
3.9423,-3.531246652490079,5,"O,P,Si,Y,Zr",YZr5Si5PO24,mp-532768
3.9432,-2.711822081108374,4,"Be,Na,O,Si",Na10Be4Si4O17,mp-555606
3.9438,-2.987542761153846,4,"Ga,O,Si,Sr",SrGa2(SiO4)2,mp-14235
3.9446,-2.8739837837052953,6,"Ga,Hf,Na,O,P,Si",Na7Hf2Ga2Si3(PO8)3,mp-2714684
3.9451,-2.985894627648384,6,"Hf,Na,O,P,Si,Zn",Na7Hf3ZnSi3(PO8)3,mp-2714627
3.945599999999999,-3.055743730801275,6,"Na,O,P,Si,Y,Zr",Na4YZrSi2PO12,mp-2715571
3.945999999999999,-2.197250693771747,6,"Al,Na,O,S,Si,Zn",Na6Al4Zn4SiS11O48,mp-2712630
3.9461,-2.835221771591474,6,"Ga,Na,O,P,Si,Zr",Na7Zr2Ga2Si3(PO8)3,mp-2715028
3.9465,-3.070539563651635,4,"Lu,Na,O,Si",Na3LuSi2O7,mp-554463
3.9467,-3.316970056785713,4,"Ca,Mg,O,Si",Ca3Mg(SiO4)2,mp-558079
3.9473000000000003,-2.697648403238146,5,"Cs,H,O,Si,Sr",CsSrSiHO4,mp-1259697
3.9475,-2.832151200554187,4,"Na,O,Si,Zn",Na2ZnSi3O8,mp-6481
3.949499999999999,-3.297848844529662,5,"Al,K,Mg,O,Si",KMg4Al9(SiO4)9,mp-686653
3.9543,-2.720908122993197,4,"Li,Ni,O,Si",Li2Si12(NiO6)5,mp-772287
3.9587,-2.794299428174899,6,"Ga,Hf,Na,O,S,Si",Na3Hf3GaSi3(SO8)3,mp-2714879
3.9598999999999993,-2.416164830102048,6,"Ca,Mg,Na,O,S,Si",Na10Ca4Mg4SiS11O48,mp-2713319
3.96,-3.064922186856765,4,"Na,O,Si,Tm",Na3TmSi2O7,mp-555421
3.963199999999999,-2.730581326309935,5,"Ga,K,Na,O,Si",KNa2Ga3(SiO4)3,mp-1211711
3.9643,-3.012385302196969,4,"Bi,Li,O,Si",LiSi6BiO14,mp-849779
3.9648000000000003,-2.8657944286711823,6,"Ga,Hf,Na,O,P,Si",Na3HfGaSi(PO6)2,mp-2715342
3.9673,-3.541806379271825,5,"Dy,O,P,Si,Zr",DyZr9Si9PO40,mp-686636
3.9696,-3.016056508941592,5,"F,O,Pr,Se,Si",Pr5Si2Se3O17F,mp-1194712
3.969999999999999,-3.052820713908047,4,"Ho,Na,O,Si",Na3HoSi2O7,mp-1195700
3.9705,-3.091530023336175,6,"Na,O,P,Sc,Si,Zr",Na5Zr2Sc2SiP5O24,mp-2716040
3.9709000000000003,-3.010381403990938,5,"Na,O,S,Si,Zr",Na10Zr8Si9(SO16)3,mp-2714084
3.9739999999999993,-3.048443572901234,5,"Ca,Cl,O,S,Si",Ca19Si6S6(ClO24)2,mp-695095
3.9808000000000003,-3.122375706771784,5,"Na,O,P,Si,Zr",Na10Zr6Si7(PO18)2,mp-677336
3.9816000000000003,-2.897821522941298,6,"Al,Na,O,S,Si,Zr",Na8Zr2Al2Si5SO24,mp-2715742
3.9817,-2.686552454679487,5,"Al,H,Li,O,Si",LiAlSi2H2O7,mp-698018
3.9819999999999993,-2.203621913178973,6,"Mg,Na,O,S,Si,Zn",Na10Mg4Zn4SiS11O48,mp-2713246
3.9831000000000003,-2.989009533609445,6,"Al,Be,Cl,Na,O,Si",Na8BeAl4Si7(ClO12)2,mp-42583
3.9834,-3.082646720546182,6,"Na,O,P,Si,Y,Zr",Na3YZrSi(PO6)2,mp-2715417
3.9839,-2.9094540064355323,5,"Be,Cl,Na,O,Si",Na8Be3Si9(ClO12)2,mp-40201
3.985099999999999,-3.418580365987654,3,"Ca,O,Si",Ca3SiO5,mp-641754
3.9878,-2.81617308041523,6,"Al,Na,O,S,Si,Zr",Na3ZrAlSi2SO12,mp-2714373
3.9888,-2.995787979038663,4,"Na,O,Si,Sr",Na2Sr(SiO3)2,mp-1221321
3.9917,-2.515085125234305,5,"B,H,Na,O,Si",NaSi2BH2O7,mp-862999
3.997,-3.011903863208811,6,"Al,Ca,Na,O,S,Si",Na3CaAl3Si3SO16,mp-720222
3.9981,-3.273893302844827,5,"Al,Fe,Mg,O,Si",Mg3Al8Fe(Si5O18)2,mp-1222261
3.999,-2.984453122225064,6,"Al,Na,O,P,Si,Zr",Na5Zr2Al2SiP5O24,mp-2714272
4.000099999999999,-3.479153565833332,3,"O,Si,Zr",ZrSiO4,mp-11736
4.0027,-3.146197094999999,4,"Ba,O,Si,Zn",Ba2ZnSi2O7,mp-558629
4.0032,-2.519505622074828,4,"Cd,O,P,Si",Cd2Si(P2O7)2,mp-757428
4.0034,-3.116710351359375,4,"Ho,K,O,Si",K3Ho(SiO3)3,mp-560105
4.0034,-2.985929055084154,6,"Na,O,S,Sc,Si,Zr",Na8Zr2Sc2Si5SO24,mp-2716247
4.0054,-2.93661621643336,6,"Al,Hf,Na,O,S,Si",Na8Hf2Al2Si5SO24,mp-2715719
4.006699999999999,-3.037974428267021,4,"Na,O,Si,Y",Na3YSi2O7,mp-1221257
4.0078,-2.9639795049999993,2,"O,Si",SiO2,mp-556588
4.0091,-2.6957873175,2,"O,Si",SiO2,mp-9258
4.0111,-3.075120935584291,4,"Na,O,Si,Zr",Na2ZrSiO5,mp-556709
4.0112,-3.083525118380092,6,"Ca,Hf,Na,O,P,Si",Na7CaHf3Si3(PO8)3,mp-2714940
4.0129,-2.8825441013,4,"K,O,Si,Sn",K2Si3SnO9,mp-556797
4.015899999999999,-1.8045234571875,5,"Al,Ba,N,O,Si",BaAlSi5N7O2,mp-1227994
4.0165,-2.983436491713425,6,"Al,Na,O,P,Si,Zr",Na7Zr2Al2Si3(PO8)3,mp-2714994
4.0168,-3.208431632556818,6,"Al,Ca,Cr,H,O,Si",Ca4Al5CrSi6(HO13)2,mp-1227826
4.017200000000001,-3.059306971428571,3,"Mg,O,Si",Mg2SiO4,mp-673808
4.0185,-2.757971127142857,4,"Fe,Mg,O,Si",MgFeSiO4,mp-1192819
4.018899999999999,-1.321862115409089,5,"H,K,N,O,Si",K2SiH4(NO)2,mp-697910
4.0192,-3.167569670833332,5,"Ca,O,Si,Sr,Zn",SrCaZnSi2O7,mp-1218075
4.022,-2.6416847680208333,4,"Li,O,Si,Zn",Li2ZnSiO4,mp-17288
4.0225,-2.923705772998564,6,"Na,O,S,Sc,Si,Zr",Na3ZrScSi2SO12,mp-2714535
4.0235,-2.800430778809825,6,"Ga,Na,O,P,Sc,Si",Na7Sc2Ga2SiP5O24,mp-2715739
4.023599999999999,-3.080145823928571,3,"Mg,O,Si",Mg2SiO4,mp-1020110
4.0268,-3.546879104647817,5,"Er,O,P,Si,Zr",ErZr11Si11PO48,mp-690951
4.0274,-2.430188149402377,6,"Al,Ca,Na,O,S,Si",Na6Ca4Al4SiS11O48,mp-2712721
4.0305,-3.023075551472148,4,"Na,O,Sc,Si",Na3ScSi2O7,mp-557463
4.030900000000001,-3.178988181926279,4,"Al,Mn,O,Si",Mn2Al4Si5O18,mp-19477
4.032500000000001,-3.065133579680905,6,"La,Na,O,P,Si,Zr",Na7La2Zr2Si3(PO8)3,mp-2715128
4.0326,-2.7865293545087573,6,"Al,Na,O,S,Sc,Si",Na4ScAlSi2SO12,mp-2714328
4.0333,-3.017718408393997,6,"Al,Ca,Na,O,S,Si",Na3CaAl3Si3SO16,mp-1173736
4.0334,-3.108441420612501,6,"Al,F,K,Mg,O,Si",KMg3AlSi3(O5F)2,mp-684841
4.0335,-2.936742171816014,6,"Al,Na,O,P,Si,Y",Na4YAlSi(PO6)2,mp-2714545
4.035,-3.026892561388889,2,"O,Si",SiO2,mp-556464
4.035900000000001,-3.019507004806913,5,"Al,Na,O,S,Si",Na8Al6Si6SO28,mp-41734
4.0363,-3.160976240770001,4,"K,Nd,O,Si",K3Nd(Si2O5)3,mp-1198373
4.0387,-2.722450041220775,6,"Al,Ga,Na,O,P,Si",Na4AlGaSi(PO6)2,mp-2714550
4.0396,-2.889471357500001,3,"O,Rb,Si",Rb2Si2O5,mp-28971
4.0396,-3.362388403258619,7,"Ca,F,Na,Nb,O,Si,Zr",Na2Ca4ZrNbSi4O17F,mp-6903
4.0422,-2.971813028269231,4,"Ga,O,Si,Sr",SrGa2(SiO4)2,mp-6198
4.0434,-3.301908251350088,5,"Al,Cs,Mg,O,Si",CsMg4Al9(SiO4)9,mp-695133
4.0436,-3.001223165641019,3,"O,Rb,Si",Rb6Si10O23,mp-561189
4.0451,-3.033869635555556,2,"O,Si",SiO2,mp-559605
4.0506,-1.901829577609195,4,"H,Na,O,Si",Na3SiH5O6,mp-703468
4.051,-2.677509451960785,4,"Li,Ni,O,Si",Li4Si3NiO9,mp-766702
4.051,-2.8242175870815363,5,"Al,Li,Na,O,Si",Na3Li2Al(SiO4)2,mp-1020163
4.053000000000001,-3.302073473571428,3,"Ca,O,Si",Ca2SiO4,mp-676278
4.0548,-3.217079569374999,3,"O,Si,Sr",SrSi2O5,mp-560886
4.0553,-3.156415355,4,"Ca,O,Si,Zn",Ca2ZnSi2O7,mp-6227
4.0558,-2.957191427573635,5,"Al,H,Na,O,Si",Na4Al3Si3HO13,mp-39140
4.0563,-2.7471880422504533,5,"Na,O,S,Sc,Si",Na2Sc2Si(SO6)2,mp-2713687
4.056599999999999,-3.0329841,4,"Ca,O,Si,Zn",CaZn(SiO3)2,mp-6693
4.057,-2.877445608715106,5,"Na,O,S,Sc,Si",Na4Sc2Si2SO12,mp-2714335
4.0584,-2.7186143454687492,5,"H,O,Rb,Si,Sr",RbSrSiHO4,mp-995216
4.0624,-3.134642928840337,5,"Na,O,P,Si,Zr",Na11Zr8Si7P5O48,mp-1266342
4.0627,-3.143388482192426,5,"Al,K,Na,O,Si",KNa3Al4(SiO4)4,mp-695074
4.062799999999999,-3.058296052586989,6,"Hf,Mg,Na,O,P,Si",Na8Hf3MgSi4(PO12)2,mp-2715596
4.0667,-3.019336027796183,6,"Mg,Na,O,P,Si,Zr",Na6MgZr3Si2(PO6)4,mp-2715450
4.0672,-3.120083335937501,3,"Al,O,Si",Al2SiO5,mp-640357
4.068899999999999,-2.559452796000002,3,"O,Si,Yb",YbSiO3,mp-1187516
4.0714,-3.077397213817147,6,"Ca,Hf,Na,O,P,Si",Na8CaHf3Si4(PO12)2,mp-2715718
4.073,-3.098881071550824,6,"Hf,La,Na,O,P,Si",Na7La2Hf2Si3(PO8)3,mp-2714728
4.0731,-2.947512009,4,"N,O,Si,Y",YSiNO2,mp-559123
4.0735,-2.673892267986952,6,"Be,H,Na,O,Si,Sn",Na4Be2Si6Sn(HO5)4,mp-706336
4.0744,-3.084951495171181,6,"Na,O,P,Sc,Si,Zr",Na3ZrScSi(PO6)2,mp-2715472
4.0755,-3.065461379802856,6,"Hf,Mg,Na,O,P,Si",Na7Hf3MgSi3(PO8)3,mp-2714679
4.0779,-3.1679077149999992,3,"Mg,O,Si",Mg2SiO4,mp-1103987
4.0793,-3.117025463103449,4,"Al,Na,O,Si",Na2Al2Si3O10,mp-1221477
4.0809,-2.718231678565923,6,"Al,Ga,Na,O,P,Si",Na7Al2Ga2SiP5O24,mp-2715525
4.080999999999999,-2.900787348571429,4,"Al,O,Si,Tl",AlTlSiO4,mp-1228209
4.0813,-3.059999426574052,5,"Na,O,P,Si,Y",Na7Y4SiP5O24,mp-2715790
4.0824,-2.628348237776769,6,"Al,La,Na,O,S,Si",Na2LaAlSi(SO6)2,mp-2713643
4.083299999999999,-3.025415210877805,6,"Hf,Na,O,S,Sc,Si",Na8Hf2Sc2Si5SO24,mp-2715651
4.084899999999999,-2.80933427368774,6,"Hf,Na,O,S,Sc,Si",NaHfScSi(SO6)2,mp-2712608
4.0858,-2.544144062961606,6,"Cs,K,Li,Na,O,Si",CsKNaLi13(SiO4)4,mp-720245
4.087199999999999,-3.008130423656609,5,"Ca,Ga,Na,O,Si",NaCaGaSi2O7,mp-1173092
4.0872,-3.112397419020115,6,"F,In,Mg,Na,O,Si",Na3Mg4InSi8(O11F)2,mp-1173861
4.0896,-2.773676516285542,5,"La,Na,O,S,Si",Na2La2Si(SO6)2,mp-2713667
4.0901,-2.982064594444445,2,"O,Si",SiO2,mp-557076
4.0908,-3.300946367592592,3,"O,Si,Ti",Ti(SiO3)2,mp-1041763
4.0915,-2.69375097359375,5,"Ba,H,O,Rb,Si",RbBaSiHO4,mp-995192
4.092,-3.131276516055527,5,"Na,O,P,Si,Zr",Na11Zr8Si7P5O48,mp-677528
4.0931,-2.865235219442192,4,"Na,O,Si,Sr",Na4Sr(SiO3)3,mp-1428949
4.096,-3.082021378921182,6,"Na,O,P,Sc,Si,Zr",Na3ZrScSi(PO6)2,mp-2715355
4.1007,-2.857022719081897,6,"Al,Hf,Na,O,S,Si",Na3HfAlSi2SO12,mp-2714534
4.1008,-2.6653750204621662,5,"H,Na,O,Si,Ti",Na2TiSi4H4O13,mp-1200866
4.101500000000001,-2.997813131254516,6,"Hf,Na,O,P,Si,Zn",Na6Hf3ZnSi2(PO6)4,mp-2715320
4.101999999999999,-3.035298580625537,6,"Na,O,P,Sc,Si,Y",Na4YScSi(PO6)2,mp-2714427
4.1046,-2.975319703171182,6,"Al,Na,O,P,Si,Zr",Na3ZrAlSi(PO6)2,mp-2715339
4.1052,-3.011197687820629,6,"Hf,Na,O,S,Si,Zr",Na2HfZrSi2SO12,mp-2712769
4.1076,-2.584289763178972,5,"Al,Na,O,S,Si",Na10Al8Si5S7O48,mp-2714991
4.1088000000000005,-2.689888897380952,4,"Fe,Li,O,Si",Li4FeSi2O7,mp-757988
4.1088000000000005,-3.675006665119046,5,"Ba,F,La,O,Si",Ba2La3Si3O12F,mp-686674
4.1088000000000005,-1.8936307286091951,4,"H,Na,O,Si",Na3SiH5O6,mp-721564
4.1094,-2.947160866937499,4,"Cd,O,Rb,Si",Rb2CdSi5O12,mp-15125
4.11,-3.031204880964296,6,"La,Na,O,P,Sc,Si",Na7La2Sc2SiP5O24,mp-2715755
4.1102,-3.322422384843751,3,"Al,O,Si",Al2SiO5,mp-1247890
4.111599999999999,-3.044090696921182,6,"Ca,Na,O,P,Si,Zr",Na6CaZr3Si2(PO6)4,mp-2715246
4.1123,-3.204538754416666,4,"Ca,K,O,Si",K2Ca3Si3O10,mp-1019747
4.1125,-3.059002906912386,6,"Na,O,P,Sc,Si,Zr",Na4ZrScSi2PO12,mp-2715799
4.112500000000001,-3.073538041469522,6,"Na,O,P,Si,Y,Zr",Na7Y2Zr2Si3(PO8)3,mp-2714743
4.112999999999999,-2.7117696435625,5,"Ba,H,K,O,Si",KBaSiHO4,mp-995194
4.1136,-3.300220161666667,4,"Ba,Mg,O,Si",BaMgSiO4,mp-560186
4.1137999999999995,-2.970191189166666,2,"O,Si",SiO2,mp-557653
4.1143,-3.095096679769529,6,"Hf,Na,O,P,Sc,Si",Na4HfScSi2PO12,mp-2715521
4.1166,-3.032433645986589,6,"Al,Ca,Na,O,S,Si",Na3CaAl3Si3SO16,mp-1252733
4.1171,-3.051187761382004,6,"Ca,H,Mn,Na,O,Si",Na4Ca7MnSi12(HO9)4,mp-1221263
4.1184,-2.976379852381466,5,"Al,Mg,Na,O,Si",Na9Mg9Al(Si2O7)5,mp-1173784
4.120100000000001,-2.690464495687309,4,"Mn,O,P,Si",Mn2Si(P2O7)2,mp-17863
4.122,-3.059561982628675,5,"Er,F,O,Se,Si",Er3SiSe2O10F,mp-555942
4.1238,-3.045275498349911,6,"Hf,Na,O,S,Si,Zr",Na10Hf4Zr4Si9(SO16)3,mp-2714141
4.1249,-3.116407526770045,6,"Hf,Na,O,S,Si,Zr",Na14Hf4Zr4Si11SO48,mp-2714342
4.1289,-2.586529968906882,6,"Ca,La,Na,O,S,Si",Na6Ca4La4SiS11O48,mp-2712739
4.1312,-2.939020182546182,6,"Na,O,P,Si,Zn,Zr",Na6Zr3ZnSi2(PO6)4,mp-2715424
4.1334,-3.046487399436064,5,"Na,O,S,Si,Zr",Na6Zr4Si5SO24,mp-2713849
4.133500000000001,-3.167380317812501,4,"Ca,O,Rb,Si",Rb2Ca2(SiO3)3,mp-1020641
4.1341,-3.050899240444504,6,"Ca,H,Mn,Na,O,Si",Na4Ca7MnSi12(HO9)4,mp-1221274
4.1359,-2.715361149601443,5,"Br,Ga,Li,O,Si",Li4Ga3Si3BrO12,mp-556649
4.1363,-3.075535121272989,6,"Ca,Na,O,Sc,Si,Zn",NaCa5ScZn5(SiO3)12,mp-705485
4.1378,-3.692055623266128,4,"La,Nd,O,Si",La3Nd11(Si3O13)3,mp-1224647
4.1396,-2.917504951801026,6,"Hf,La,Na,O,S,Si",Na3LaHf3Si3(SO8)3,mp-2714723
4.1411,-2.989894437142857,3,"Mg,O,Si",Mg2SiO4,mp-554396
4.1417,-3.04316790158867,5,"Be,Ca,Mn,O,Si",CaMn2Be3(SiO4)3,mp-15539
4.1425,-3.012875022406609,5,"Ca,Ga,Na,O,Si",NaCaGaSi2O7,mp-1221117
4.142500000000001,-3.438078001979167,4,"B,La,O,Si",LaSiBO5,mp-6267
4.1433,-2.711530580064313,5,"Al,Na,O,S,Si",Na4Al2Si2SO12,mp-2714483
4.145,-2.559254113027209,4,"Cd,O,P,Si",Cd2Si(P2O7)2,mp-541108
4.1469,-2.659744588863146,5,"Ba,Cs,H,O,Si",CsBaSiHO4,mp-995225
4.147299999999999,-2.667116054488147,5,"Cs,H,O,Si,Sr",CsSrSiHO4,mp-995215
4.1481,-2.772480079004841,6,"La,Na,O,S,Si,Y",Na2LaYSi(SO6)2,mp-2713253
4.1492,-2.7162385732142873,3,"O,Sb,Si",Si3Sb2O9,mp-769028
4.1495,-3.55875977333333,3,"O,Si,Zr",ZrSiO4,mp-4820
4.1506,-3.09206374516103,6,"Na,O,P,Sc,Si,Zr",Na17Zr7Sc5Si6(PO6)12,mp-693746
4.151299999999999,-3.02832147197901,5,"Al,I,Na,O,Si",Na4Al3Si3IO12,mp-23655
4.1533,-3.405372870838942,5,"Al,Ba,K,O,Si",KBa7Al15Si17O64,mp-706815
4.153599999999999,-3.706233316626985,4,"B,La,O,Si",La5Si2BO13,mp-1223205
4.1547,-2.974439285715367,5,"Na,O,S,Si,Zr",Na2Zr2Si2SO12,mp-2712744
4.1563,-3.260066760625,5,"Ca,Fe,Mg,O,Si",Ca4Mg3Fe(SiO3)8,mp-1227644
4.1576,-2.979884517884614,4,"Ba,Ga,O,Si",BaGa2(SiO4)2,mp-6759
4.1576,-2.734691835171569,5,"Hf,O,S,Si,Y",Y2Hf2SiS5O24,mp-2713021
4.1577,-3.097839281249999,4,"Fe,Mg,O,Si",Mg7Fe(SiO4)4,mp-1094131
4.157800000000001,-3.7618830419047633,4,"Al,La,O,Si",La5AlSi2O13,mp-1223240
4.1588,-2.585045604987963,6,"Ca,Na,O,S,Si,Y",Na6Ca4Y4SiS11O48,mp-2712575
4.1604,-3.136317816250001,4,"Ba,Ge,O,Si",Ba2Si3GeO10,mp-1228564
4.1609,-2.904279635823529,4,"K,O,Si,Sr",K4Sr(SiO3)3,mp-560535
4.1625,-2.732282918014706,5,"Hf,La,O,S,Si",La2Hf2SiS5O24,mp-2713099
4.165,-3.378603264285713,3,"Ca,O,Si",Ca2SiO4,mp-1227559
4.1652000000000005,-3.147182888199234,5,"Hf,Na,O,Si,Zr",Na4HfZr(SiO4)3,mp-2716347
4.169399999999999,-3.136539828249999,5,"Ga,O,Rb,Si,Y",Rb2YGa(SiO3)4,mp-555230
4.169700000000001,-2.577692876842105,5,"Al,Ca,H,O,Si",CaAl2Si2(H2O5)2,mp-1248272
4.1707,-2.857824663387931,4,"Ga,Na,O,Si",NaGa(SiO3)2,mp-6822
4.1725,-3.132339601303208,5,"Na,O,P,Si,Zr",Na5Zr4Si3(PO8)3,mp-686583
4.1731,-3.001983617068965,4,"Ba,Na,O,Si",BaNa2(SiO3)2,mp-556806
4.1738,-3.284969743235293,3,"Al,O,Si",Al2Si4O11,mp-707135
4.1738,-3.336539129999999,3,"Ca,O,Si",Ca2SiO4,mp-1019562
4.1742,-2.645849363998599,4,"Li,O,P,Si",Li7SiPO8,mp-1239225
4.1789,-3.079597792786305,5,"Na,O,S,Si,Zr",Na14Zr8Si11SO48,mp-2714386
4.1793,-2.6366886595311563,6,"Al,Na,O,S,Si,Y",Na2YAlSi(SO6)2,mp-2713546
4.179699999999999,-3.184035271373837,4,"Hf,Na,O,Si",Na4Hf2(SiO4)3,mp-2716478
4.1811,-3.141671946583334,5,"Ga,O,Rb,Si,Tb",Rb2TbGa(SiO3)4,mp-558318