band_gap,formation_energy_per_atom,nelements,elements,formula,material_id
2.0564,-2.730265087704081,4,"O,P,Si,V",V3SiP5O19,mp-560988
2.057299999999999,-2.876718773354491,6,"Mg,Na,Nb,O,P,Si",Na15Mg4Nb8Si9(PO8)9,mp-2714153
2.0577,-2.60557515389706,5,"La,O,S,Si,Ti",La2Ti2SiS5O24,mp-2712851
2.0586,-2.76679714115942,4,"Li,O,Si,V",Li2V4Si4O13,mp-767720
2.0588,-2.804695020652173,4,"Fe,Mg,O,Si",Mg3Fe2(Si2O7)2,mp-1263953
2.0592,-2.270689923576218,6,"Ga,Na,O,S,Si,Zn",Na8Zn2Ga2Si3(SO8)3,mp-2715163
2.061999999999999,-2.594441004782608,4,"Cr,O,Si,Zn",Zn3Cr2(Si2O7)2,mp-1262777
2.064,-2.454597664711538,5,"Ca,H,O,Si,Zn",CaZn2Si2HO7,mp-1213903
2.0641,-2.771354889848485,4,"Li,O,Si,V",Li2V(SiO3)2,mp-766231
2.0645,-3.110719303907689,5,"Al,Na,O,Rb,Si",Rb14Na3Al17Si31O96,mp-721330
2.065,-2.948233770587849,6,"La,Na,O,P,Si,Ti",Na3LaTiSi(PO6)2,mp-2715499
2.065299999999999,-2.342072526729395,6,"Ga,In,Na,O,S,Si",Na14In4Ga4Si7S5O48,mp-2715595
2.0679,-2.149952937831897,6,"Na,O,S,Si,Sn,Zn",Na6Zn3Si2Sn(SO6)4,mp-2712651
2.067999999999999,-2.83889302761202,6,"Mg,Na,O,S,Si,Ta",Na30Mg8Ta16Si27(SO16)9,mp-2714251
2.0689,-2.743375837045555,6,"Na,Nb,O,P,Si,Zn",Na9Nb8Zn4Si3(P5O24)3,mp-2713033
2.0694,-2.888095515374999,4,"Al,O,Si,V",Al2V3(SiO4)3,mp-1163942
2.07,-3.3816695285172402,5,"F,Na,O,Si,U",Na2U2Si(O4F)2,mp-560638
2.070499999999999,-2.586147026770834,4,"Cr,Li,O,Si",Li2CrSiO4,mp-758544
2.0716,-2.54525004947773,6,"In,Na,O,S,Sc,Si",Na6Sc2In2Si3(SO8)3,mp-2716194
2.0735,-2.319283880817369,6,"Al,Ge,Na,O,S,Si",NaAlSiGe(SO6)2,mp-2712595
2.0736,-2.35950895025484,6,"In,Na,Nb,O,S,Si",Na4NbIn3Si3(SO8)3,mp-2713597
2.0738,-3.128585341624999,5,"Ca,K,O,Si,U",K4CaU(Si2O7)2,mp-1195727
2.074,-3.00500081525,4,"Mg,O,Si,V",MgV(SiO3)2,mp-1132757
2.0757,-2.452090642826086,4,"Fe,O,Si,Zn",Zn3Fe2(Si2O7)2,mp-1262781
2.0773,-3.346679059425926,5,"Ca,K,O,Si,U",K2Ca4U(SiO4)4,mp-1192578
2.0773,-2.812827701153963,6,"Na,Nb,O,S,Si,Y",Na2YNbSi2SO12,mp-2712774
2.0777,-2.879828107965297,6,"Na,Nb,O,S,Sc,Si",Na10Sc4Nb4Si9(SO16)3,mp-2714169
2.0781,-2.926935835693436,6,"Na,Nb,O,S,Sc,Si",Na4ScNb3Si5SO24,mp-2715086
2.0793,-3.2774703130208342,4,"O,Si,Sm,Te",Sm2SiTeO4,mp-6055
2.0795,-2.9061033043513462,6,"Na,O,S,Sc,Si,Ti",Na14Sc4Ti4Si9(SO16)3,mp-2715142
2.0797,-3.000301949565217,5,"Ca,O,Si,Sr,V",Sr2CaV2(Si2O7)2,mp-1233083
2.081,-2.148632520171569,5,"Al,Ge,O,S,Si",Al2SiGe2S5O24,mp-2712925
2.081899999999999,-2.878004111474448,6,"Na,Nb,O,S,Si,Y",Na6Y2Nb6Si9(SO16)3,mp-2712899
2.0824,-2.7362160561711812,6,"In,Na,O,P,Si,Ti",Na3TiInSi(PO6)2,mp-2715448
2.0824,-2.767100739098323,6,"La,Na,O,S,Si,Ti",Na3LaTi3Si3(SO8)3,mp-2714891
2.0829,-2.022105188508772,4,"Fe,Li,O,Si",Li2Fe2Si4O11,mp-797054
2.0837,-2.768173037884406,6,"Na,Nb,O,P,Si,Zn",Na15Nb8Zn4Si9(PO8)9,mp-2714284
2.084399999999999,-3.2647732428125,4,"O,Pr,Si,Te",Pr2SiTeO4,mp-17750
2.0846,-2.7600695460526303,2,"O,Si",Si6O13,mp-530027
2.0857,-2.978793858910046,6,"Na,Nb,O,P,Si,Y",Na5Y2Nb2Si3(PO8)3,mp-2714116
2.0873,-2.800767166497687,6,"Ca,Na,O,S,Si,Ta",Na14Ca4Ta4Si9(SO16)3,mp-2714877
2.087799999999999,-2.483436301199424,6,"Ge,In,Na,O,P,Si",Na5In2SiGe2P5O24,mp-2715936
2.0883,-3.034693407210145,4,"Li,O,Si,V",LiV(Si2O5)3,mp-775301
2.088799999999999,-2.418229911195266,6,"Ga,Mg,Na,O,S,Si",Na8Mg2Ga2Si3(SO8)3,mp-2715104
2.0905,-2.8542760754838152,6,"Na,O,P,Si,Ti,Zn",Na8Ti3ZnSi4(PO12)2,mp-2715700
2.0906000000000002,-2.620289649248564,6,"Ge,Na,O,S,Sc,Si",Na3ScSi2GeSO12,mp-2714525
2.0907,-2.867185701671456,6,"Ca,Na,O,S,Si,Ti",Na8CaTi3Si5SO24,mp-2716191
2.090799999999999,-2.726871428331896,6,"Al,Na,Nb,O,S,Si",Na6NbAl3Si4(SO12)2,mp-2714415
2.090999999999999,-2.942077636955465,6,"La,Na,Nb,O,P,Si",Na3La2Nb2SiP5O24,mp-2712840
2.0913,-3.019937212777777,4,"Li,O,Si,V",Li2V(Si2O5)3,mp-767204
2.0917,-2.607716072037037,4,"Cu,Li,O,Si",LiCuSi2O5,mp-756392
2.093099999999999,-2.543902653678056,6,"Ge,Mg,Na,O,P,Si",Na5MgSiGe3P5O24,mp-2714109
2.0932,-2.653454557291667,4,"Li,O,Si,V",LiVSiO5,mp-780114
2.0936,-3.170528210555556,3,"O,Si,Ti",TiSiO4,mp-1095453
2.094,-2.487598195701487,5,"H,Na,O,Si,Ti",Na2Ti2Si2H2O9,mp-1210399
2.0945,-2.475497827946553,6,"Ga,Na,O,S,Si,Ta",Na2Ta4Ga4Si5S7O48,mp-2716150
2.0946,-2.4604724285071162,6,"Ge,Na,O,P,Si,Zn",Na5ZnSiGe3P5O24,mp-2715997
2.0952,-2.891216298591566,6,"Na,Nb,O,S,Si,Ti",Na6Ti4Nb4Si9(SO16)3,mp-2712870
2.0972,-2.504449978182227,6,"Ge,In,Na,O,P,Si",Na4InSi2GePO12,mp-2715717
2.097699999999999,-2.833138222023809,4,"Li,O,Si,V",LiVSiO4,mp-766121
2.0979,-2.163016854875,4,"Bi,O,Si,Zn",Zn3Si3(BiO6)2,mp-1157822
2.0985,-1.182682057671233,5,"C,N,O,Si,W",SiW12C16(NO10)4,mp-1197711
2.0987,-2.739342789920362,6,"Al,Na,O,S,Si,Ta",Na2Ta5Al3Si6(SO8)6,mp-2713946
2.0995,-2.836239492826955,6,"Mg,Na,Nb,O,S,Si",Na42Mg8Nb16Si33(SO48)3,mp-2714393
2.1002,-2.737384383996972,6,"In,Na,Nb,O,S,Si",Na6Nb6In2Si9(SO16)3,mp-2712980
2.1024,-2.299123272186063,6,"Ga,In,Na,O,S,Si",Na6In2Ga2Si3(SO8)3,mp-2716211
2.1026,-2.8390187751190483,4,"Li,O,Si,V",LiVSiO4,mp-753702
2.102699999999999,-2.608749628421646,6,"Ca,Na,O,P,Si,Sn",Na5CaSiSn3P5O24,mp-2716096
2.1056,-2.676439829813586,6,"Ge,Na,O,S,Si,Y",Na5Y3Si3Ge(SO8)3,mp-2713439
2.1063,-2.818612582431109,6,"La,Na,Nb,O,S,Si",Na10La6Nb2Si7S5O48,mp-2715973
2.107,-2.895268507651457,6,"Ca,Na,Nb,O,P,Si",Na6Ca2Nb4Si3(PO6)6,mp-2712644
2.107299999999999,-2.872183620333332,4,"Cr,Li,O,Si",LiCr(SiO3)2,mp-859107
2.107599999999999,-2.265280092548629,6,"In,Na,O,S,Si,Sn",Na5In3Si3Sn(SO8)3,mp-2713198
2.108,-2.4828216592545163,6,"Ge,In,Na,O,P,Si",Na3InSiGe(PO6)2,mp-2715431
2.1113,-2.448534060567861,6,"In,Na,O,S,Si,Ta",Na10Ta2In6Si7S5O48,mp-2715895
2.1119,-2.939784074706896,5,"Mg,Na,Nb,O,Si",Na9MgNb5(SiO4)9,mp-2715368
2.1127,-2.211262636912321,6,"In,Na,O,S,Si,Zn",Na14Zn4In4Si5S7O48,mp-2713066
2.1131,-2.566796070167122,6,"In,Na,O,S,Si,Zr",Na4Zr2In2Si3(SO8)3,mp-2713553
2.1134,-2.883823804523034,6,"Ca,Na,Nb,O,P,Si",Na9Ca4Nb8Si3(P5O24)3,mp-2712991
2.1137,-2.700137161531897,6,"Ca,Na,O,S,Si,Ta",Na3CaTaSi2SO12,mp-2714580
2.113799999999999,-2.611867941527586,5,"Br,Cr,Na,O,Si",NaCr12Si8BrO28,mp-1221115
2.1139,-3.167152070010592,6,"Cs,F,K,O,Si,U",Cs4K3U3Si4O20F,mp-1200353
2.1155,-2.8502735335598173,6,"Na,Nb,O,P,Si,Zn",Na3Nb10Zn2Si3(P5O24)3,mp-2715636
2.1158,-2.663692031972789,4,"O,P,Re,Si",ReSi2(PO5)3,mp-1197149
2.117599999999999,-2.8338407865384623,4,"Li,O,Si,V",Li3VSi2O7,mp-766120
2.1181,-2.948186553171182,6,"Ca,Na,O,P,Si,Ti",Na6CaTi3Si2(PO6)4,mp-2715436
2.119,-2.880543630123098,6,"Na,Nb,O,S,Sc,Si",Na6Sc2Nb6Si9(SO16)3,mp-2713059
2.1194,-2.855693624409551,6,"Mg,Na,O,S,Si,Ti",Na8MgTi3Si5SO24,mp-2715623
2.1195,-2.622223089952972,6,"Na,O,S,Si,Ta,Zn",Na14Ta4Zn4Si9(SO16)3,mp-2714773
2.1199,-2.797255516421182,6,"Na,O,P,Si,Sn,Y",Na3YSiSn(PO6)2,mp-2715369
2.1202,-2.868087185831897,6,"Na,Nb,O,S,Si,Y",Na6Y3NbSi4(SO12)2,mp-2714420
2.1205,-2.436821174289592,6,"Ga,Na,O,S,Si,Ti",NaTiGaSi(SO6)2,mp-2712648
2.1206,-3.123024311851396,7,"Ba,Ca,Na,O,S,Si,Ti",Ba4Na2CaTi3Si4(SO13)2,mp-561052
2.1207,-2.812280078514706,5,"O,S,Si,Ta,Y",YTa3Si3(SO8)3,mp-2713865
2.122399999999999,-2.712911399648526,5,"Li,O,P,Si,V",Li4V2Si(PO6)2,mp-1255288
2.1233,-2.368587642055531,6,"Ga,Na,O,S,Si,Ta",Na6Ta2Ga6Si5S7O48,mp-2716114
2.1235,-2.945193912333335,4,"Li,O,Si,V",LiV(SiO3)2,mp-757307
2.123599999999999,-2.859766656586379,6,"Ca,Na,O,S,Si,Ta",Na30Ca8Ta16Si27(SO16)9,mp-2714201
2.123899999999999,-2.645415585875,4,"Al,O,Si,Sn",Al2Si3(SnO4)3,mp-1163929
2.1239,-2.72466933547619,4,"Cr,Li,O,Si",LiCrSiO4,mp-753086
2.1245,-2.9548875015566303,5,"La,Na,Nb,O,Si",Na14La3Nb5(SiO4)12,mp-2712988
2.1247,-2.929938270512198,6,"Ca,Na,Nb,O,P,Si",Na3Ca2Nb10Si3(P5O24)3,mp-2715808
2.1247,-2.119100995690513,6,"Na,O,S,Si,Ta,Zn",Na12Ta2Zn10Si3(S5O24)3,mp-2713123
2.1249000000000002,-2.995445987000001,3,"Ba,O,Si",BaSiO3,mp-18407
2.1271,-2.529464885276711,6,"Na,O,S,Si,Ta,Zn",Na6Ta16Zn8Si15(S7O48)3,mp-2716207
2.1275,-2.2920259828584593,6,"Ga,Mg,Na,O,S,Si",Na10Mg4Ga4Si3(S3O16)3,mp-2714804
2.1289,-2.698916508919222,6,"Mg,Na,O,S,Si,Zr",Na2MgZr3Si2(SO6)4,mp-2712543
2.129499999999999,-2.854714063504516,6,"Na,O,P,Si,Ti,Zn",Na6Ti3ZnSi2(PO6)4,mp-2715325
2.1308,-2.709548628125,4,"Mg,O,Si,W",Mg3Si3(WO6)2,mp-1157231
2.1313,-2.811313029230769,4,"Li,O,Si,V",Li3VSi2O7,mp-766039
2.131399999999999,-2.871320038111112,4,"Li,O,Si,V",Li2V(SiO3)3,mp-757471
2.133299999999999,-1.4820420044444451,5,"Al,La,N,O,Si",LaAl2Si5N9O,mp-677482
2.133599999999999,-2.011184559591836,5,"Ni,O,Sb,Si,Y",Y4Si2Ni13(SbO14)2,mp-1044649
2.133899999999999,-2.564865377671181,6,"Ca,Ge,Na,O,P,Si",Na6CaSi2Ge3(PO6)4,mp-2715304
2.1345,-2.7035003391912973,6,"Mg,Na,O,S,Si,Ti",Na4MgTiSi2SO12,mp-2714539
2.1359999999999992,-2.541215990920323,6,"Na,O,P,Si,Sn,Zn",Na8ZnSi4Sn3(PO12)2,mp-2716155
2.1362,-2.517481487745099,5,"Al,Nb,O,S,Si",NbAlSi(SO6)2,mp-2713477
2.137099999999999,-2.902386055689655,4,"Mg,Mn,O,Si",Mg3Mn2(Si2O7)2,mp-1250887
2.1371,-2.915800734988389,6,"Mg,Na,Nb,O,P,Si",Na3Mg2Nb10Si3(P5O24)3,mp-2715707
2.1378,-3.011830469884156,6,"Na,Nb,O,P,Sc,Si",Na7Sc3NbSi3(PO8)3,mp-2715115
2.138,-2.465789806498564,6,"In,Na,Nb,O,S,Si",Na6NbIn3Si4(SO12)2,mp-2714409
2.1384,-2.963421418020833,4,"Cr,Li,O,Si",LiCr(Si2O5)2,mp-780620
2.14,-2.684903548906249,4,"Mg,O,Si,Sn",Mg14SiSnO16,mp-1034282
2.1408,-1.4789021503571431,3,"H,O,Si",Si2H2O3,mp-627114
2.1416,-2.27549064776327,6,"Na,O,S,Si,Ta,Zn",Na42Ta4Zn20Si15(S7O48)3,mp-2716015
2.142,-2.2724353338956202,6,"Ga,Na,O,S,Si,Sn",Na3GaSi3Sn3(SO8)3,mp-2716524
2.1422,-2.263091630955883,5,"In,O,S,Si,Ti",Ti2In2SiS5O24,mp-2712950
2.142299999999999,-2.636715684831897,6,"Na,O,S,Sc,Si,Sn",Na3ScSi2SnSO12,mp-2714499
2.1432,-2.987607624607143,4,"K,Nb,O,Si",K3Nb3Si2O13,mp-559346
2.1433,-2.89702424385273,6,"La,Na,Nb,O,S,Si",Na6La2Nb2Si5SO24,mp-2713838
2.143799999999999,-2.318513376373563,6,"In,Mg,Na,O,S,Si",Na3MgInSi(SO6)2,mp-2712571
2.1439,-2.263698443321296,6,"Ca,In,Na,O,S,Si",Na6Ca4In4SiS11O48,mp-2713288
2.1439999999999992,-2.493671576876027,6,"Ge,Na,O,P,Si,Zn",Na7ZnSi3Ge3(PO8)3,mp-2714988
2.144,-2.688509042131963,6,"Al,Na,Nb,O,S,Si",Na10Nb2Al6Si7S5O48,mp-2715965
2.1444,-2.950149380484674,5,"Ca,Na,Nb,O,Si",Na9CaNb5(SiO4)9,mp-2715274
2.1446,-1.923248898178573,4,"N,O,P,Si",SiP4N2O13,mp-1202503
2.1455,-2.5348503316802793,6,"In,Na,Nb,O,S,Si",Na2NbInSi2SO12,mp-2712563
2.1461,-2.4575558225,3,"Mo,O,Si",Si3(MoO6)2,mp-1143651
2.1466,-2.885610209769529,6,"Al,Na,Nb,O,P,Si",Na8NbAl3Si4(PO12)2,mp-2716156
2.1468,-2.883518244707171,5,"Ca,Na,Nb,O,Si",Na12Ca2Nb4(SiO4)9,mp-2716498
2.1473,-3.025248564698491,8,"Fe,K,Li,Mn,Na,O,Si,Ti",KNa2LiTi2MnFe(SiO3)8,mp-1223707
2.147399999999999,-3.160805641039408,6,"F,Na,O,Rb,Si,U",Rb6NaU3Si4O20F,mp-1197419
2.147999999999999,-2.382824164206896,6,"Ga,Ge,Na,O,S,Si",Na3GaSi2GeSO12,mp-2714437
2.148499999999999,-2.9870647586956522,4,"Ca,O,Si,Sn",Ca3Si4(SnO7)2,mp-1350370
2.149,-2.424682584424899,6,"In,Na,O,S,Si,Y",Na6Y4In4Si3(S3O16)3,mp-2713895
2.149299999999999,-2.751312741190475,4,"Li,O,Si,V",LiVSiO4,mp-766051
2.1496,-2.674529224590518,6,"La,Na,O,S,Sc,Si",Na2La2Sc2SiS5O24,mp-2715725
2.15,-2.9096308017473493,6,"Ca,Na,Nb,O,S,Si",Na30Ca4Nb20Si33(SO48)3,mp-2716571
2.1503,-2.9835666439721313,6,"La,Na,Nb,O,P,Si",Na2LaNb3Si2(PO6)4,mp-2715701
2.1506,-2.936470217129516,6,"Mg,Na,O,P,Si,Ti",Na6MgTi3Si2(PO6)4,mp-2715397
2.151399999999999,-2.764836012397374,6,"Na,Nb,O,P,Si,Zn",Na9Nb4Zn2Si6(PO12)3,mp-2713311
2.1531000000000002,-2.638360689593819,6,"In,Na,O,S,Si,Ti",Na3Ti3InSi3(SO8)3,mp-2714920
2.1542,-1.478871414357142,3,"H,O,Si",Si2H2O3,mp-1179481
2.1545,-2.864493552802409,5,"Mg,Na,Nb,O,Si",Na12Mg2Nb4(SiO4)9,mp-2716414
2.1564,-2.890820581480706,6,"Ca,Na,Nb,O,P,Si",Na9Ca2Nb4Si6(PO12)3,mp-2715360
2.1566,-2.657994023254478,6,"Mg,Na,O,S,Si,Ta",Na9Mg5Ta7Si9(SO8)9,mp-2716506
2.1567,-2.329178667205883,5,"Ga,Nb,O,S,Si",NbGaSi(SO6)2,mp-2713498
2.158,-2.714387604038251,6,"In,Na,Nb,O,P,Si",Na5Nb2In2Si3(PO8)3,mp-2714140
2.1587,-2.72838127183481,6,"Mg,Na,O,S,Si,Zr",Na6Mg2Zr6Si5S7O48,mp-2715878
2.159,-2.990836011337849,6,"Na,O,P,Si,Ti,Y",Na3YTiSi(PO6)2,mp-2715226
2.1595,-2.241950618940665,6,"Ga,Ge,Na,O,S,Si",Na3GaSi3Ge3(SO8)3,mp-2714796
2.1602,-2.9322906420004142,5,"Ag,Al,Na,O,Si",Na8Al11Si13(AgO16)3,mp-677572
2.160999999999999,-2.624491959345,5,"Cl,Cr,K,O,Si",KCr12Si8ClO28,mp-1223595
2.1612,-2.444064289226189,4,"Fe,Li,O,Si",LiFeSiO4,mp-758991
2.1618,-2.782485708828053,6,"Na,O,S,Sc,Si,Ti",Na3ScTi3Si3(SO8)3,mp-2714741
2.1627,-2.665925321171569,5,"O,S,Si,Ta,Y",Y3TaSiS5O24,mp-2712893
2.1639,-2.619514370627586,5,"Cl,Cr,Na,O,Si",NaCr12Si8ClO28,mp-1221145
2.1667,-2.9434993796125872,6,"Ca,Na,O,S,Si,Ta",Na18Ca4Ta20Si27(SO16)9,mp-2713034
2.1667,-2.704794140546194,6,"In,Na,Nb,O,P,Si",Na2NbInSi(PO6)2,mp-2712807
2.1668,-2.688015865416666,4,"Li,O,Si,V",LiVSiO5,mp-754539
2.1672000000000002,-2.621964164680905,6,"Ca,Na,O,P,Si,Sn",Na7CaSi3Sn3(PO8)3,mp-2715170
2.1673,-2.839852410379826,6,"Na,Nb,O,S,Si,Y",Na10Y6Nb2Si7S5O48,mp-2716109
2.167399999999999,-2.150157444469945,5,"Ga,Na,O,S,Si",Na6Ga8Si3(S3O16)3,mp-2713789
2.1679,-2.650653554188745,6,"In,Na,O,S,Si,Ti",Na14Ti4In4Si9(SO16)3,mp-2714631
2.1687,-2.699747095243754,6,"In,Na,Nb,O,P,Si",Na3Nb2In2SiP5O24,mp-2712905
2.168799999999999,-2.988341220849999,5,"H,K,O,Si,U",KUSiHO6,mp-1211875
2.169899999999999,-2.610616012298852,6,"Al,Na,O,S,Si,Ti",NaTiAlSi(SO6)2,mp-2712764
2.1707,-2.663721547359476,6,"La,Na,O,S,Si,Sn",Na14La4Si9Sn4(SO16)3,mp-2714878
2.1723,-1.275459048416666,6,"C,Ca,H,O,S,Si",Ca3SiH14CSO10,mp-1214820
2.1726,-3.020283292481475,6,"Na,O,P,Si,Ti,Y",Na5Y2Ti2SiP5O24,mp-2715969
2.173199999999999,-2.781959714909134,6,"Na,O,S,Si,Ti,Y",Na3YTi3Si3(SO8)3,mp-2714839
2.1736,-2.865929204973483,6,"Mg,Na,Nb,O,P,Si",Na9Mg4Nb8Si3(P5O24)3,mp-2713109
2.173999999999999,-2.8105093796079643,6,"Al,Na,Nb,O,S,Si",Na8NbAl3Si5SO24,mp-2715803
2.174,-2.634578223777262,6,"Ga,Na,Nb,O,S,Si",Na10Nb4Ga4Si9(SO16)3,mp-2714125
2.174,-2.978896680642545,6,"Na,O,P,Si,Ti,Y",Na4YTiSi2PO12,mp-2715544
2.1744,-2.516444821227452,6,"Na,O,S,Si,Ta,Zn",Na9Ta7Zn5Si9(SO8)9,mp-2714738
2.174699999999999,-2.5570103660656,6,"Ge,Na,O,S,Si,Ta",Na2Ta4Si7Ge4S5O48,mp-2715708
2.1759,-2.90445853081476,6,"Na,O,S,Si,Ti,Y",Na14Y4Ti4Si9(SO16)3,mp-2714843
2.176599999999999,-2.690084414012211,4,"Li,Mn,O,Si",Li2MnSiO4,mp-559240
2.1767,-2.355705615404629,6,"Al,Na,O,S,Si,Sn",Na3AlSi3Sn3(SO8)3,mp-2714779
2.1781,-2.339855662720588,5,"In,O,S,Si,Zr",Zr2In2SiS5O24,mp-2712839
2.179799999999999,-2.938991640483814,6,"Ca,Na,O,P,Si,Ti",Na8CaTi3Si4(PO12)2,mp-2715573
2.1809,-2.6633438811274512,6,"As,Be,Ca,O,Si,Ti",Ca3TiBe2Si2(As3O10)2,mp-558370
2.1809,-2.903406565350877,4,"Li,O,Si,V",Li2V2Si4O11,mp-756730
2.1814,-2.3628816238199972,6,"Ga,Na,Nb,O,S,Si",Na10NbGa7Si6(SO8)6,mp-2713490
2.181799999999999,-2.970254698141026,4,"Li,O,Si,V",LiVSi3O8,mp-767716
2.181899999999999,-1.023447834352941,6,"Br,C,H,O,Si,Zr",Zr5Si6H36C12(Br10O3)2,mp-1196506
2.1822,-2.621924142044999,5,"Br,Cr,K,O,Si",KCr12Si8BrO28,mp-1223609
2.184199999999999,-2.438357243426471,5,"Al,O,S,Si,Ta",TaAl3SiS5O24,mp-2713074
2.1847,-2.642585523647223,6,"Mg,Na,O,P,Si,Sn",Na7Mg2SiSn2P5O24,mp-2715793
2.1851,-3.554936807500001,4,"Br,Gd,O,Si",Gd3Si2BrO8,mp-1224744
2.1853,-2.791826698520853,6,"Al,Na,Nb,O,S,Si",Na10Nb4Al4Si9(SO16)3,mp-2714319
2.1863,-2.962183249995212,6,"Na,Nb,O,S,Sc,Si",Na10Sc2Nb6Si11SO48,mp-2716318
2.1869,-2.8710035622307073,6,"Mg,Na,Nb,O,P,Si",Na9Mg2Nb4Si6(PO12)3,mp-2713607
2.187,-3.235151624145834,4,"Ce,K,O,Si",K2Ce(Si2O5)3,mp-557649
2.1872,-2.974445269708334,4,"Li,O,Si,V",LiV(SiO3)2,mp-765346
2.1873,-2.338122171362733,6,"Ga,Na,O,S,Si,Sn",Na10Ga4Si7Sn4S5O48,mp-2715938
2.1874000000000002,-2.312952666553481,6,"Ga,Na,O,S,Si,Ta",Na2TaGa3Si2(SO6)4,mp-2712663
2.189999999999999,-3.059598969875,4,"Ca,O,Si,V",CaV(SiO3)2,mp-1041879
2.1901,-2.469278726547618,4,"Fe,Li,O,Si",LiFeSiO4,mp-758940
2.1904,-2.996654164405843,6,"Na,Nb,O,P,Sc,Si",Na2ScNbSi(PO6)2,mp-2712586
2.191,-2.699920423734948,6,"La,Na,O,S,Si,Sn",Na8La2Si5Sn2SO24,mp-2715726
2.191699999999999,-2.518657015581897,4,"Cs,O,Sb,Si",CsSiSbO5,mp-1226548
2.1919,-2.740564727499999,4,"Cd,Mg,O,Si",Mg14CdSiO16,mp-1034788
2.1926,-2.80075274689706,5,"La,O,S,Si,Ta",LaTa3Si3(SO8)3,mp-2713882
2.1933,-3.296999063823529,5,"Be,Fe,O,Si,Y",Y2Be2Fe(SiO5)2,mp-18959
2.1933,-2.534945223846154,5,"C,Li,O,Si,V",Li3VSiCO7,mp-768601
2.1935000000000002,-2.22598939511994,5,"Al,H,Na,O,Si",Na2Al2Si3(HO3)4,mp-1173760
2.1948,-2.27706614384804,5,"Ga,O,S,Si,Ti",Ti2Ga2SiS5O24,mp-2713020
2.196199999999999,-2.427015788009883,6,"In,Na,O,S,Si,Sn",Na14In4Si9Sn4(SO16)3,mp-2714659
2.1966,-2.931248818261235,6,"Mg,Na,O,S,Si,Ta",Na18Mg4Ta20Si27(SO16)9,mp-2712953
2.196799999999999,-3.002839775738666,6,"Na,Nb,O,S,Si,Ta",Na2Ta2Nb2Si5SO24,mp-2713463
2.196999999999999,-2.8458852519148943,4,"Ca,O,Si,W",Ca9Si6(WO7)4,mp-1214849
2.1976,-2.416268289097776,6,"In,Na,Nb,O,S,Si",Na10Nb2In6Si7S5O48,mp-2715865
2.198,-2.070785494607843,4,"O,S,Si,Sn",SiSn2(SO6)2,mp-2713158
2.1984999999999992,-2.8801819185144923,4,"Li,O,Si,V",Li4V2Si4O13,mp-850217
2.1994,-2.070175612522523,4,"Fe,Li,O,Si",Li16Fe4SiO16,mp-757339
2.2008,-2.59239878157792,6,"Na,Nb,O,P,Si,Zn",Na12Nb2Zn4Si3(PO6)6,mp-2714490
2.2023,-3.110743629545454,4,"Ba,O,Si,V",BaVSi2O7,mp-558509
2.2025,-2.861174085956897,6,"Na,Nb,O,S,Sc,Si",Na6Sc3NbSi4(SO12)2,mp-2714476
2.203,-2.5812891640179823,6,"Na,O,S,Si,Sn,Ta",Na2Ta4Si7Sn4S5O48,mp-2715553
2.2033,-2.832007442943929,6,"Na,Nb,O,S,Sc,Si",Na10Sc6Nb2Si7S5O48,mp-2715879
2.203999999999999,-3.012713062777777,4,"Li,O,Si,V",Li2V(Si2O5)3,mp-757778
2.204399999999999,-2.47014284762255,5,"Al,O,S,Si,Ti",Ti2Al2SiS5O24,mp-2712949
2.2072,-3.178303399789029,5,"Ag,Al,Ca,O,Si",Ca5Al12Si12(AgO24)2,mp-677550
2.2074,-2.931051155701629,5,"Na,Nb,O,S,Si",Na2Nb4Si5SO24,mp-2713479
2.2075,-1.5713702584999991,3,"H,O,Si",Si2H2O3,mp-1179422
2.2082,-2.9426862538841,6,"La,Na,Nb,O,S,Si",Na10La2Nb6Si11SO48,mp-2716313
2.2088,-3.198274611966179,4,"Cs,O,Si,U",Cs2U(SiO4)2,mp-581584
2.2089,-3.011661767948719,4,"Cr,Li,O,Si",Li2CrSi7O16,mp-752731
2.2089,-3.4545496999804692,4,"La,O,Se,Si",La2SiSeO4,mp-17834
2.209199999999999,-2.587743261356831,6,"Ge,Mg,Na,O,P,Si",Na8MgSi4Ge3(PO12)2,mp-2715567
2.21,-2.804547364361816,6,"Na,O,P,Si,Sn,Y",Na5Y2SiSn2P5O24,mp-2715916
2.2104,-1.713579070625,3,"O,Si,Zn",Zn2SiO5,mp-1105595
2.210899999999999,-2.830138428333332,4,"Li,O,Si,V",LiVSiO4,mp-753374
2.211699999999999,-2.9817276298189643,6,"Al,Ca,Mg,Na,O,Si",NaCaMgAl(SiO3)4,mp-1256265
2.212,-2.792072433171182,6,"Na,O,P,Si,Sn,Y",Na3YSiSn(PO6)2,mp-2715440
2.2121,-2.609261431479886,6,"Ga,Na,O,S,Si,Ta",Na2Ta5Ga3Si6(SO8)6,mp-2713934
2.2125999999999992,-2.9611088878125003,4,"Ca,O,Si,W",CaSi4WO10,mp-1043702
2.2127,-2.9402730987979133,6,"Al,Na,Nb,O,P,Si",NaNb3AlSiP5O24,mp-2715624
2.2131,-2.611106442438067,6,"Ca,Na,O,S,Si,Ta",Na42Ca20Ta4Si15(S7O48)3,mp-2716083
2.2136,-2.364971507941177,5,"O,S,Si,Sn,Ti",TiSiSn(SO6)2,mp-2713338
2.2137000000000002,-2.8616850703125003,4,"Mg,O,Si,W",MgSi4WO10,mp-1043550
2.2147,-3.011602315902777,4,"Li,O,Si,V",Li2V(Si2O5)3,mp-1249301
2.2148,-2.474925297635189,5,"As,H,Mn,O,Si",Mn4Si3AsHO13,mp-733680
2.2157,-3.025504205985748,6,"Na,O,P,Sc,Si,Ti",Na5Sc2Ti2SiP5O24,mp-2714045
2.215899999999999,-2.799613758105716,6,"Na,Nb,O,S,Sc,Si",Na4Sc3NbSi3(SO8)3,mp-2713659
2.2161,-3.071719742968425,5,"Al,Na,O,Rb,Si",Rb10NaAl11Si13O48,mp-705861
2.216199999999999,-2.758513639421181,6,"Ge,Na,O,P,Sc,Si",Na3ScSiGe(PO6)2,mp-2715503
2.2163,-2.571074576018517,5,"Ge,Li,O,Si,V",Li4V2SiGeO10,mp-772830
2.216899999999999,-2.595027188159551,6,"Ga,Na,Nb,O,S,Si",Na8NbGa3Si5SO24,mp-2715730
2.2193,-2.887104665453263,6,"Al,Na,Nb,O,P,Si",Na7NbAl3Si3(PO8)3,mp-2714800
2.219999999999999,-2.5512889537500003,4,"Cr,Mg,O,Si",Mg6CrSiO8,mp-1030893
2.2201,-2.628865631519494,6,"Ge,Na,Nb,O,S,Si",Na6Nb4Si9Ge4(SO16)3,mp-2713114
2.2211,-2.7231895517931033,4,"Mn,O,Si,Zn",MnZn(SiO3)2,mp-1171226
2.2218,-2.932571492648384,6,"Mg,Na,O,P,Si,Ti",Na7MgTi3Si3(PO8)3,mp-2714633
2.222699999999999,-2.9808321434166682,4,"K,Nb,O,Si",K3Nb3Si2O13,mp-17059
2.2234,-2.902366650875,4,"Cr,O,Si,Y",Y2Cr3(SiO4)3,mp-1157313
2.2235,-2.988886746865376,6,"Na,Nb,O,P,Si,Y",Na3Y2Nb2SiP5O24,mp-2712890
2.2239,-2.328217526395621,6,"Al,Ge,Na,O,S,Si",Na3AlSi3Ge3(SO8)3,mp-2714904
2.224199999999999,-2.855535636754076,6,"Na,O,P,Si,Ti,Zn",Na7Ti3ZnSi3(PO8)3,mp-2714842