band_gap,formation_energy_per_atom,nelements,elements,formula,material_id
2.8424,-2.580398604412322,6,"In,Na,O,S,Sc,Si",Na14Sc4In4Si7S5O48,mp-2715641
2.8428,-3.2410763569024392,5,"Ba,K,O,Si,Ta",K4BaTa6(Si2O13)2,mp-677011
2.843199999999999,-3.453196465191667,6,"Al,Ca,O,Si,Ta,Ti",Ca10Ta3Ti4Al3(SiO5)10,mp-534838
2.8437,-2.8022490328708463,6,"Ca,Hf,Na,O,S,Si",Na6Ca2Hf6Si5S7O48,mp-2716060
2.8438,-2.72276642198239,6,"Na,O,S,Si,Sn,Zr",Na10Zr4Si9Sn4(SO16)3,mp-2714128
2.8440000000000003,-2.529241510902777,5,"B,Li,O,Sb,Si",Li2SiBSbO7,mp-772132
2.8449,-2.955820313506112,5,"Ca,Na,O,Si,Ta",Na12Ca2Ta4(SiO4)9,mp-2716399
2.845399999999999,-2.5585126949679413,6,"Ga,Ge,Na,O,P,Si",Na4GaSi2GePO12,mp-2715732
2.846,-3.06221058523737,6,"Na,Nb,O,P,Si,Ta",NaTa2Nb2Si3(PO8)3,mp-2714262
2.8466,-3.045281022523998,6,"Na,Nb,O,S,Si,Ta",Na6Ta4Nb4Si11SO48,mp-2714560
2.8478,-2.448092957051282,4,"Co,Li,O,Si",Li2Co2Si2O7,mp-758338
2.849,-2.905060116971707,5,"Na,Nb,O,Si,Sn",Na5Nb3Si6SnO24,mp-2713210
2.849299999999999,-2.865605345372372,6,"Na,O,P,Si,Ta,Zn",Na9Ta4Zn2Si6(PO12)3,mp-2713268
2.8493,-3.114603549767564,6,"Hf,Na,Nb,O,P,Si",Na3Hf2Nb2Si3(PO8)3,mp-2713007
2.8493,-2.8500464025104852,6,"Hf,Na,O,S,Sc,Si",Na6Hf4Sc4Si5S7O48,mp-2716049
2.8509,-2.514432849472246,5,"Fe,H,Mn,O,Si",Mn2Fe5Si8(HO12)2,mp-1211939
2.851099999999999,-2.48571494452381,4,"Fe,Li,O,Si",LiFeSiO4,mp-762623
2.8515,-3.1330048986363632,4,"O,Si,Sr,V",SrVSi2O7,mp-1179076
2.8527,-2.635526660887212,4,"Li,Mn,O,Si",Li2MnSiO4,mp-849346
2.8528000000000002,-2.5014755614583333,4,"Co,Li,O,Si",Li2CoSiO4,mp-758372
2.8537,-2.3720344022578512,5,"Ga,Na,O,S,Si",Na14Ga8Si7S5O48,mp-2715795
2.8539,-2.363772901785713,3,"O,Si,Zn",Zn2SiO4,mp-1020609
2.8542,-2.585395034242425,4,"Cr,Li,O,Si",Li2Cr2SiO6,mp-758734
2.8547000000000002,-3.059483910183361,5,"Na,O,Si,Ti,Zr",Na4ZrTi(SiO4)3,mp-2716339
2.8547000000000002,-3.133475091363636,4,"O,Si,Sr,V",SrVSi2O7,mp-19296
2.8554,-2.978684626676428,6,"Ca,Na,O,P,Si,Ta",Na15Ca4Ta8Si9(PO8)9,mp-2714256
2.8566000000000003,-2.490956204583334,4,"Co,Li,O,Si",Li2CoSiO4,mp-757985
2.8575,-2.470122319466666,4,"Fe,Li,O,Si",Li2Fe5(Si2O7)2,mp-757408
2.8577,-3.05939816629023,5,"Na,Nb,O,Si,Zr",Na3ZrNb(SiO4)3,mp-2715410
2.8581000000000003,-2.489216073416928,5,"Ca,H,Mn,O,Si",Ca2Mn7Si10H12O35,mp-697226
2.858199999999999,-3.041851847812499,4,"Ca,Co,O,Si",CaCo(Si2O5)2,mp-1043607
2.8585000000000003,-2.809461886770663,5,"Na,O,Si,Sn,Ti",Na4TiSi3SnO12,mp-2716530
2.8614,-2.9745825555510272,5,"Na,Nb,O,S,Si",Na6Nb8Si11SO48,mp-2714419
2.8615999999999993,-3.048767634924897,6,"Ca,Na,O,P,Si,Ta",Na3Ca2Ta10Si3(P5O24)3,mp-2715805
2.8616,-2.967169726683908,6,"F,Fe,Na,O,Si,Zr",Na2ZrFeSi2O8F,mp-1210430
2.8618,-2.589041015184679,6,"In,Na,O,S,Si,Y",Na14Y4In4Si7S5O48,mp-2715780
2.8619,-3.452857383333334,6,"Al,Ca,Nb,O,Si,Ti",Ca10Ti8NbAl(SiO5)10,mp-693409
2.8624,-3.465145833308333,6,"Al,Ca,O,Si,Ta,Ti",Ca5TaTi3Al(SiO5)5,mp-720394
2.8629,-2.779536190956728,4,"Li,Mn,O,Si",Li4Mn(SiO3)3,mp-780578
2.863799999999999,-3.533616396319445,6,"Al,Ca,F,O,Si,Ti",Ca6TiAl5Si6(O5F)5,mp-695616
2.864199999999999,-2.960511504967026,6,"Mg,Na,O,P,Si,Ta",Na15Mg4Ta8Si9(PO8)9,mp-2714310
2.8647,-2.191447322756409,5,"Al,H,Li,O,Si",LiAlSi2H2O7,mp-684746
2.8649,-2.851454201307472,6,"Na,O,S,Sc,Si,Zr",Na4Zr2Sc2Si3(SO8)3,mp-2713631
2.8661000000000003,-2.298495789288794,4,"Co,Cs,O,Si",Cs2CoSiO4,mp-542168
2.8665000000000003,-2.756565356465517,6,"La,Na,O,S,Si,Zr",NaLaZrSi(SO6)2,mp-2712741
2.867,-2.546225936510417,4,"Co,Li,O,Si",Li2Co2(SiO3)3,mp-758546
2.8676,-2.5252393953125,4,"Cr,Li,O,Si",Li9Cr5(SiO8)2,mp-756673
2.868299999999999,-2.45319204047619,4,"Bi,Li,O,Si",LiSiBiO4,mp-757349
2.8689,-2.782334716105706,6,"Ge,Na,O,P,Si,Ti",Na3TiSi2GePO12,mp-2715375
2.8697,-2.073414296313559,5,"Al,Ca,H,O,Si",Ca2Al4Si8H14O31,mp-743762
2.8699000000000003,-2.804197641730707,6,"Na,O,P,Si,Sn,Ti",Na3TiSi2SnPO12,mp-2713300
2.87,-2.415582320103378,5,"Mg,Na,O,S,Si",Na14Mg8Si3(S3O16)3,mp-2714523
2.8703000000000003,-3.069625669294222,5,"Na,O,S,Si,Ta",Na2Ta4Si5SO24,mp-2713385
2.8706,-2.439361000886813,5,"Al,Na,O,S,Si",Na2Al4SiS5O24,mp-2714362
2.8712,-2.635087714933036,4,"Fe,O,P,Si",FeSiP3O11,mp-541929
2.8719,-2.932122488913043,4,"Bi,Ca,O,Si",Ca3Si4(BiO7)2,mp-1264770
2.8725,-2.9175562061274523,4,"Cr,Li,O,Si",Li2Cr(Si2O5)2,mp-758261
2.8743,-3.033873950067755,6,"Mg,Na,O,P,Si,Ta",Na3Mg2Ta10Si3(P5O24)3,mp-2715796
2.8745000000000003,-1.576027028205127,6,"Al,Ba,N,O,Si,Sm",BaSm5Al3Si9N20O,mp-1227863
2.875499999999999,-2.779968236086207,3,"Mn,O,Si",MnSiO3,mp-17766
2.8755,-2.688496758977201,6,"Al,Ge,Na,O,P,Si",Na5Al2SiGe2P5O24,mp-2716105
2.8757,-2.47290852273291,6,"Ga,La,Na,O,S,Si",Na2LaGaSi(SO6)2,mp-2713608
2.8773,-2.9212029735,4,"Ca,O,Si,Sn",CaSi2SnO6,mp-1255815
2.8776,-2.241494607034273,6,"Ga,Na,O,S,Si,Zn",Na14Zn4Ga4Si5S7O48,mp-2715963
2.8779,-3.07308078042464,6,"Na,O,P,Si,Ta,Ti",Na2TaTiSi2PO12,mp-2714998
2.8779,-2.48748384128205,4,"Fe,Li,O,Si",Li2Fe2Si2O7,mp-758631
2.8792,-2.394389386656863,5,"Ga,O,S,Si,Ta",TaGaSi(SO6)2,mp-2713344
2.8794,-2.374117398888891,4,"Bi,Li,O,Si",LiSi6Bi9O26,mp-757434
2.8802000000000003,-2.775091213821617,6,"Na,Nb,O,P,Si,Sn",Na3Nb2Si3Sn2(PO8)3,mp-2712996
2.8804,-2.874522795748563,5,"In,Na,Nb,O,Si",Na6Nb3In(SiO4)6,mp-2715367
2.880499999999999,-2.554998725631833,5,"Na,O,S,Si,Sn",Na14Si11Sn8SO48,mp-2714337
2.8822,-3.331690765520834,5,"Ca,Ge,O,Si,Ti",Ca3Ti3Si2GeO15,mp-1229240
2.882399999999999,-2.679309454012212,4,"Li,Mn,O,Si",Li2MnSiO4,mp-780666
2.8825000000000003,-3.209908774827586,4,"Mn,O,Si,Sr",Sr2MnSi2O7,mp-1191740
2.8829000000000002,-2.9703728324389482,6,"Ca,Na,O,P,Si,Ta",Na9Ca4Ta8Si3(P5O24)3,mp-2713072
2.8829000000000002,-2.522098470458474,6,"Ge,Na,O,P,Si,Sn",Na2SiSnGe(PO6)2,mp-2712730
2.8832,-2.534985081891997,6,"Ge,Na,O,S,Si,Sn",Na14Si11Sn4Ge4SO48,mp-2714448
2.8846,-2.863861642149056,6,"Na,O,S,Si,Ta,Y",Na10Y6Ta2Si7S5O48,mp-2715822
2.884699999999999,-2.7837542424310353,4,"Mn,Na,O,Si",NaMn(SiO3)2,mp-19349
2.8848000000000003,-2.900469337951724,5,"Ca,Mn,O,Si,Zn",CaMn3Zn(SiO3)5,mp-1195724
2.8849,-2.513323856170425,6,"Ga,La,Na,O,S,Si",Na10La4Ga4Si5S7O48,mp-2715206
2.8855,-2.641771060042403,6,"Ca,Hf,Na,O,S,Si",Na14Ca6Hf2Si5S7O48,mp-2716058
2.8865,-2.693201845921182,6,"Al,Ge,Na,O,P,Si",Na3AlSiGe(PO6)2,mp-2715351
2.8867000000000003,-3.0768171855263162,4,"Al,Ca,O,Si",CaAl4(SiO6)2,mp-1226977
2.887,-2.816632500421182,6,"In,Na,O,P,Si,Zr",Na3ZrInSi(PO6)2,mp-2715227
2.888299999999999,-2.076047775772114,5,"Al,H,Na,O,Si",Na2Al2Si3(HO3)4,mp-691091
2.888899999999999,-2.788715801874999,4,"Mg,O,Si,Zn",Mg14ZnSiO16,mp-1034896
2.889199999999999,-2.506526524047617,4,"Fe,Li,O,Si",LiFeSiO4,mp-758939
2.889199999999999,-2.525350005957037,5,"Ca,Na,O,S,Si",Na14Ca8Si3(S3O16)3,mp-2714411
2.8895,-2.592852572807016,4,"Co,Li,O,Si",Li4Co2Si3O10,mp-757921
2.8901,-2.5356085155,3,"Cd,O,Si",CdSiO3,mp-560560
2.8911,-2.778340374312286,6,"Hf,Mg,Na,O,S,Si",Na6Hf6Mg2Si5S7O48,mp-2716045
2.8911,-2.651608864791667,4,"Fe,Li,O,Si",Li2Fe2(SiO3)3,mp-1261131
2.891599999999999,-3.022291257632033,6,"Na,O,S,Si,Ta,Y",Na4YTa3Si5SO24,mp-2715112
2.8916999999999993,-2.646398059040672,4,"Li,Mn,O,Si",Li2Mn2Si2O7,mp-753530
2.892,-2.8884095479629632,5,"Ba,In,O,S,Si",Ba2In2Si3SO10,mp-1194952
2.892599999999999,-3.266128816666667,4,"Mg,O,Si,Ti",MgTiSiO5,mp-1256211
2.8926,-3.038459391373417,5,"Na,Nb,O,Si,Zr",Na5ZrNb3(SiO4)6,mp-2713520
2.8929,-2.7674914861703623,6,"Hf,Na,O,S,Si,Y",Na2Y4Hf4Si3(S3O16)3,mp-2716323
2.8941,-2.5172946977656,6,"Hf,Mg,Na,O,S,Si",Na2Hf4Mg4SiS11O48,mp-2714219
2.8947000000000003,-2.636033121127689,6,"Mg,Na,O,S,Si,Zr",Na10Mg4Zr4Si5S7O48,mp-2714930
2.8953,-2.313504962453704,4,"H,O,Si,Ti",Ti2Si(H2O3)3,mp-1203710
2.8965,-2.479216655476189,4,"Fe,Li,O,Si",LiFeSiO4,mp-757117
2.8966000000000003,-2.754756816098563,6,"Al,Na,O,S,Si,Ta",Na6TaAl3Si4(SO12)2,mp-2714369
2.8973,-2.482601583333332,4,"Fe,Li,O,Si",LiFeSiO4,mp-758572
2.8973999999999993,-3.023269074999999,4,"Ca,O,Si,Sn",Ca3Si4(SnO7)2,mp-1249213
2.8977,-2.481633530123838,6,"La,Na,O,S,Si,Zn",Na8La2Zn2Si3(SO8)3,mp-2715186
2.898299999999999,-1.615270088375,5,"Al,N,Nd,O,Si",Nd3AlSi5N10O,mp-1173524
2.8991000000000002,-2.694118775221707,6,"Ga,Na,O,S,Si,Ta",Na10Ta4Ga4Si9(SO16)3,mp-2714103
2.8994,-3.200582824665815,5,"Al,Ca,Cs,O,Si",Cs2CaAl4(SiO4)4,mp-1250398
2.9001,-2.915546136195652,5,"Ga,Nb,O,Si,Sr",Sr3NbGa3(SiO7)2,mp-1192427
2.9013,-2.369915999270663,5,"In,Na,O,S,Si",Na4In2Si2SO12,mp-2714596
2.9015999999999993,-2.486360192619046,4,"Fe,Li,O,Si",LiFeSiO4,mp-752893
2.9031000000000002,-2.496578882261904,4,"Fe,Li,O,Si",LiFeSiO4,mp-766542
2.9032,-2.743641011111111,2,"O,Si",SiO2,mp-556027
2.9042000000000003,-2.989885134206896,5,"La,Na,Nb,O,Si",Na6LaNb3(SiO4)6,mp-2715389
2.904499999999999,-2.341033709240196,5,"Ga,O,S,Si,Zr",Zr2Ga2SiS5O24,mp-2712895
2.9046000000000003,-3.599564860681817,3,"Gd,O,Si",Gd2Si2O7,mp-16461
2.9053999999999993,-2.613192771250001,4,"Fe,O,Si,Zn",ZnFe(SiO3)2,mp-1320262
2.9057,-2.535947193351862,5,"Na,O,P,Si,Sn",Na3SiSn4P5O24,mp-2712846
2.9061,-2.8408599356555833,6,"Al,Na,O,S,Si,Ta",Na8TaAl3Si5SO24,mp-2715652
2.9067,-2.459350875347221,5,"Ca,F,H,O,Si",Ca5Si2HO9F,mp-695314
2.9085,-2.53759817102343,5,"B,Na,O,Si,Sn",Na3SiSnBO7,mp-772986
2.9092000000000002,-3.054920174062498,5,"Al,Ca,Mg,O,Si",Ca8MgAl6Si5O28,mp-744914
2.9093,-2.948898731,5,"Ca,Co,Ni,O,Si",Ca2CoSi4NiO12,mp-1227451
2.9108,-2.496198871428571,4,"Fe,Li,O,Si",LiFeSiO4,mp-759281
2.912,-3.059357602399058,5,"Hf,Na,Nb,O,Si",Na5HfNb3(SiO4)6,mp-2713403
2.912099999999999,-2.970764734455707,6,"Mg,Na,O,P,Si,Ta",Na9Mg2Ta4Si6(PO12)3,mp-2713225
2.912399999999999,-1.409541973411766,5,"Al,N,O,Si,Y",YAl6Si30(N15O)3,mp-686618
2.912399999999999,-2.695768474087849,6,"Al,Ge,Na,O,P,Si",Na3AlSiGe(PO6)2,mp-2715233
2.9127,-3.004172541831896,5,"Na,Nb,O,Si,Y",Na6YNb3(SiO4)6,mp-2715223
2.9132,-3.030463237654192,5,"La,Na,O,Si,Ta",Na14La3Ta5(SiO4)12,mp-2713055
2.913299999999999,-3.045565881818182,4,"O,Rb,Si,V",Rb2V2Si8O21,mp-1219801
2.9141,-2.628227258202971,6,"Mg,Na,O,S,Si,Zr",Na14Mg5Zr3Si6(SO8)6,mp-2714159
2.9144,-3.4304542326250003,6,"Al,Ca,Nb,O,Si,Ti",Ca5Ti3NbAl(SiO5)5,mp-720340
2.9146,-3.409887782222223,3,"Ca,O,Si",Ca3SiO5,mp-37657
2.9149000000000003,-3.442608122858908,6,"Ca,Na,O,Si,Ta,Ti",NaCa9TaTi9(SiO5)10,mp-705502
2.9151,-3.020733697549019,2,"O,Si",SiO2,mp-1244968
2.9155,-2.697821671060606,4,"Fe,Li,O,Si",Li2Fe(SiO3)2,mp-863428
2.9163,-3.038226919295018,5,"Al,Fe,Na,O,Si",Na6Al4Fe(Si4O13)2,mp-39647
2.9163,-3.456979112246409,6,"Ca,Na,O,Si,Sm,Ti",NaCa8SmTi10(SiO5)10,mp-705853
2.9163,-1.6638711787168141,6,"Al,N,O,Si,Sm,Sr",Sr10Sm6Al6Si30N54O7,mp-560093
2.9164000000000003,-3.065101275226781,6,"Na,O,P,Si,Ti,Zr",Na7Zr2Ti2Si5PO24,mp-2714616
2.9165,-2.746841009950956,6,"Ge,Na,Nb,O,P,Si",Na2NbSi2GePO12,mp-2715158
2.9175,-2.579348661810696,6,"Na,O,S,Si,Zn,Zr",Na14Zr4Zn4Si7S5O48,mp-2715661
2.9178,-2.972210034802929,6,"Ca,Na,O,P,Si,Ta",Na9Ca2Ta4Si6(PO12)3,mp-2715343
2.9182,-2.885333761978524,6,"Na,O,S,Sc,Si,Ta",Na2ScTaSi2SO12,mp-2712566
2.919199999999999,-2.6452486140122122,4,"Li,Mn,O,Si",Li2MnSiO4,mp-782667
2.9212,-2.729325516471265,5,"Na,O,Si,Sn,Ta",Na7TaSi6(SnO8)3,mp-2713052
2.921299999999999,-2.551263062107964,6,"Al,Mg,Na,O,S,Si",Na8Mg2Al2Si3(SO8)3,mp-2715201
2.9213999999999993,-3.3786351206178162,6,"Ca,Na,Nb,O,Si,Ti",NaCa4Ti4Nb(SiO5)5,mp-720204
2.9215,-2.548876583124999,4,"Mg,O,Si,Zn",Mg6ZnSiO8,mp-1032002
2.9216,-2.9730057629972,4,"Nb,O,P,Si",Nb2Si(PO6)2,mp-2715728
2.9222,-2.660856281824712,4,"Li,Mn,O,Si",Li2MnSiO4,mp-850798
2.9222,-3.012624637084165,5,"Na,Nb,O,P,Si",Na3Nb4Si5PO24,mp-2714321
2.9229000000000003,-2.797673813197423,6,"Na,O,S,Si,Zn,Zr",Na6Zr7ZnSi6(SO8)6,mp-2716295
2.923499999999999,-2.6789996841896553,4,"Cr,Mn,O,Si",Mn3Cr2(SiO4)3,mp-6274
2.923599999999999,-2.819817256069044,6,"La,Na,O,S,Si,Zr",Na6La4Zr4Si5S7O48,mp-2715851
2.923999999999999,-2.797909718331897,5,"Na,Nb,O,Si,Sn",Na3NbSi3SnO12,mp-2715316
2.9242999999999992,-3.119175549020833,5,"Fe,Li,O,Sc,Si",Li8Sc5Fe3(SiO3)16,mp-775186
2.9247,-2.874994992883142,5,"Al,Na,O,Si,Tl",NaAl3Tl2(SiO4)3,mp-677233
2.9248000000000003,-2.190851444925893,6,"Ga,In,Na,O,S,Si",Na2InGaSi(SO6)2,mp-2713657
2.926199999999999,-2.565231866089534,5,"Na,O,P,Si,Sn",Na5Si3Sn4(PO8)3,mp-2714269
2.9264,-2.568951888016443,6,"Hf,Mg,Na,O,S,Si",Na2Hf2Mg2SiS5O24,mp-2715558
2.9265,-2.704554688646553,6,"Hf,Mg,Na,O,S,Si",Na2Hf6Mg2Si3(S3O16)3,mp-2716292
2.9267000000000003,-2.471027078924517,6,"Ca,Mg,Na,O,S,Si",Na14Ca4Mg4Si3(S3O16)3,mp-2714555
2.9272,-2.774122906722012,6,"In,Na,O,P,Si,Ta",Na5Ta2In2Si3(PO8)3,mp-2714305
2.9279,-3.037103931693965,6,"Ca,Fe,Mg,Na,O,Si",NaCaMgFe(SiO3)4,mp-1221075
2.9279,-2.775467537385741,6,"Hf,In,Na,O,S,Si",Na8Hf2In2Si5SO24,mp-2716252
2.928099999999999,-2.739171940646551,6,"Ca,Hf,Na,O,S,Si",Na2Ca2Hf6Si3(S3O16)3,mp-2716338
2.9288,-3.078862754722519,6,"Na,Nb,O,P,Si,Zr",Na3Zr2Nb2Si3(PO8)3,mp-2713098
2.9292,-2.89699133351523,6,"Na,O,S,Si,Ta,Y",Na6Y3TaSi4(SO12)2,mp-2714533
2.9292,-2.763782162,3,"Mg,O,Si",MgSiO3,mp-1016928
2.9294000000000002,-2.514887947976189,4,"Fe,Li,O,Si",LiFeSiO4,mp-753362
2.931399999999999,-2.631344792921833,6,"Na,O,P,Si,Ta,Zn",Na12Ta2Zn4Si3(PO6)6,mp-2714611
2.931599999999999,-2.424305835897435,4,"Co,Li,O,Si",Li2Co2Si2O7,mp-758330
2.932699999999999,-2.763827477569982,6,"Ga,La,Na,O,P,Si",Na4LaGaSi(PO6)2,mp-2714466
2.9331,-2.786664067999999,4,"Ca,Fe,O,Si",CaFe3(SiO3)4,mp-1227384
2.9337,-2.854548190008032,6,"Al,Na,O,S,Si,Ta",Na10Ta4Al4Si9(SO16)3,mp-2714313
2.936,-2.797171060623564,5,"Na,Nb,O,Si,Sn",Na3NbSi3SnO12,mp-2715333
2.9365,-2.5485584461594213,4,"Fe,Li,O,Si",Li2Fe4Si4O13,mp-758011
2.938099999999999,-3.492115655625,5,"Ca,O,Si,Ti,Zr",Ca4ZrTi3(SiO5)4,mp-1227154
2.9385,-3.476083984166667,4,"Ca,O,Si,Ti",CaTiSiO5,mp-6440
2.9391,-2.264929565875737,6,"Mg,Na,O,S,Si,Zn",Na14Mg4Zn4Si3(S3O16)3,mp-2714554
2.9391,-2.313345275166666,3,"K,O,Si",K4SiO4,mp-18700
2.939199999999999,-2.8540414183003593,6,"Na,O,P,Si,Ta,Zn",Na15Ta8Zn4Si9(PO8)9,mp-2714184
2.939299999999999,-2.8468068199695953,6,"Na,O,P,Si,Ta,Zn",Na9Ta4Zn2Si6(PO12)3,mp-2713718
2.9406,-2.3462613797812493,4,"Cd,K,O,Si",K2CdSiO4,mp-541538
2.9417,-2.550478913440929,5,"Na,O,P,Si,Sn",Na2SiSn2(PO6)2,mp-2712646
2.9427000000000003,-2.511581071747348,6,"Hf,Mg,Na,O,S,Si",Na10Hf2Mg6Si3(S3O16)3,mp-2714914
2.9431000000000003,-2.773393099831897,5,"Ge,Na,Nb,O,Si",Na3NbSi3GeO12,mp-2715378
2.943699999999999,-2.5051109362558943,6,"In,Na,O,S,Sc,Si",Na10Sc4In4Si5S7O48,mp-2715003
2.946599999999999,-2.633557510158046,4,"Li,Mn,O,Si",Li2MnSiO4,mp-780734
2.9468,-2.610865351405468,6,"In,Na,O,S,Si,Zr",Na10Zr4In4Si7S5O48,mp-2715874
2.9469000000000003,-2.9224088196875,4,"Co,Mg,O,Si",MgCo(Si2O5)2,mp-1043503
2.9473000000000003,-2.199979255663638,6,"In,Mg,Na,O,S,Si",Na6Mg4In4SiS11O48,mp-2713606
2.9475000000000002,-2.7693997729937303,4,"Li,Mn,O,Si",Li2Mn(SiO3)2,mp-759238
2.948,-2.382233861277262,6,"La,Na,O,S,Si,Zn",Na10La4Zn4Si3(S3O16)3,mp-2714667
2.9482,-3.160490493461686,4,"Na,O,Si,Ti",Na2Ti2Si2O9,mp-5996
2.9483,-2.719570259072135,6,"Al,Na,O,S,Si,Ta",Na10Ta2Al6Si7S5O48,mp-2716112
2.9484,-2.7495452242022083,6,"Hf,Na,O,S,Si,Zn",Na4Hf3ZnSi3(SO8)3,mp-2713669
2.9489,-2.597692969249999,4,"Mg,O,Sb,Si",Mg3Si3(SbO6)2,mp-1163940
2.949,-2.9967840384291193,5,"Na,O,Si,Ta,Zn",Na9Ta5Zn(SiO4)9,mp-2715507
2.949,-2.744506093316244,6,"Ge,Na,O,S,Si,Ta",Na4Ta2Si5Ge2SO24,mp-2715053
2.9492000000000003,-2.954350310727237,6,"Mg,Na,O,P,Si,Ta",Na9Mg4Ta8Si3(P5O24)3,mp-2713110
2.9492000000000003,-3.088171618194353,6,"La,Na,O,P,Si,Ta",Na2LaTa3Si2(PO6)4,mp-2715617
2.9492000000000003,-2.730477167861932,6,"Na,O,S,Sc,Si,Sn",Na8Sc2Si5Sn2SO24,mp-2715578
2.9494,-3.050469524288799,6,"Na,O,P,Si,Ta,Y",Na3Y2Ta2SiP5O24,mp-2713044
2.9499,-2.5049012298958333,4,"Co,Li,O,Si",Li2CoSiO4,mp-761247
2.950099999999999,-2.297375256266666,4,"Li,Ni,O,Si",Li2Si4Ni5O14,mp-753450
2.950999999999999,-2.486204144761905,4,"Bi,Li,O,Si",LiSiBiO4,mp-757883
2.9513,-2.475391163928572,4,"Fe,Li,O,Si",LiFeSiO4,mp-849804
2.9514,-2.778011893274111,6,"Ca,Na,O,S,Si,Zr",Na14Ca4Zr4Si7S5O48,mp-2715523
2.9515000000000002,-2.8606936546890402,6,"Ge,Hf,Na,O,P,Si",Na3HfSi2GePO12,mp-2715467
2.952399999999999,-3.018756917203188,6,"Ca,Na,O,S,Si,Ta",Na30Ca4Ta20Si33(SO48)3,mp-2716300
2.9524,-3.049875299258232,6,"Hf,Na,O,S,Si,Ta",Na6Hf4Ta4Si9(SO16)3,mp-2713095
2.9533,-2.859054164143368,6,"Ca,Na,O,S,Si,Zr",Na6CaZr7Si6(SO8)6,mp-2714675
2.9534000000000002,-2.441181689583334,4,"Co,Li,O,Si",Li2CoSiO4,mp-772320
2.9541999999999993,-2.685746078137255,4,"Co,Li,O,Si",Li4Co(SiO3)3,mp-758369
2.9545,-3.075616974787903,5,"Al,Li,Na,O,Si",NaLi2Al3(SiO4)3,mp-693857
2.9551,-3.045946540583334,5,"Fe,Li,O,Sc,Si",Li2ScFe(SiO3)4,mp-771836
2.9552,-2.54331744295156,6,"Ga,Na,O,P,Si,Sn",Na5Ga2SiSn2P5O24,mp-2716007
2.9557,-2.58306704893904,5,"Na,O,P,Si,Sn",Na3Si2Sn2PO12,mp-2715487
2.956,-3.08339953495804,6,"Na,Nb,O,P,Si,Ta",Na3Ta2Nb2Si5PO24,mp-2714577
2.956299999999999,-2.537726993571999,6,"Al,Na,O,S,Sc,Si",Na2Sc2Al2SiS5O24,mp-2714380
2.9565,-2.849321124841365,6,"La,Na,O,S,Si,Ta",Na10La6Ta2Si7S5O48,mp-2716104
2.9566,-2.684745739012212,4,"Li,Mn,O,Si",Li2MnSiO4,mp-831245
2.9568000000000003,-2.89455821489023,6,"Na,O,S,Sc,Si,Ta",Na6Sc3TaSi4(SO12)2,mp-2714576
2.957,-2.9100647105303032,4,"Cr,Li,O,Si",Li2Cr2Si5O13,mp-758237
2.9573,-3.240215342606838,5,"Al,O,Si,Sr,Tl",Sr5Al11TlSi13O48,mp-686718
2.9575,-3.121776866517008,6,"Bi,O,P,Pb,Si,Zr",Zr12Si2Bi2P16PbO72,mp-693759
2.9576000000000002,-2.631724641510416,4,"Fe,Li,O,Si",Li2Fe2(SiO3)3,mp-758795
2.957799999999999,-2.864508556770833,4,"Fe,Li,O,Si",LiFe(Si2O5)2,mp-757120
2.9584,-2.473917293948203,6,"Na,O,S,Si,Zn,Zr",Na10Zr4Zn4Si5S7O48,mp-2715045
2.9585999999999992,-2.374014551089151,6,"Ga,Mg,Na,O,S,Si",Na7MgGa3Si3(SO8)3,mp-2714249
2.958799999999999,-3.105262088703613,6,"Na,O,P,Si,Ta,Y",Na2YTa3Si2(PO6)4,mp-2715714
2.9589,-2.723413013333333,4,"Cr,Li,O,Si",LiCrSiO4,mp-849735
2.9593,-2.507896149117628,6,"Ge,Na,O,P,Si,Sn",Na3SiSn2Ge2P5O24,mp-2712964
2.959799999999999,-2.788977392386208,3,"Mn,O,Si",MnSiO3,mp-560199
2.9598999999999993,-2.69094413175,4,"Be,O,Sb,Si",Be3Si3(SbO6)2,mp-1041250
2.9609,-2.523692857281536,6,"Ga,Na,O,S,Si,Y",Na10Y4Ga4Si5S7O48,mp-2715204
2.961500000000001,-1.404446182911765,5,"Al,N,Nd,O,Si",NdAl6Si30(N15O)3,mp-532626
2.9616,-2.515338861904761,4,"Fe,Li,O,Si",LiFeSiO4,mp-1222541
2.9616000000000002,-2.575276018695266,6,"Al,Ca,Na,O,S,Si",Na8Ca2Al2Si3(SO8)3,mp-2715007
2.9618,-2.33303936915625,4,"Co,K,O,Si",K2CoSiO4,mp-505285
2.9626,-2.501070164761903,4,"Fe,Li,O,Si",LiFeSiO4,mp-763740
2.9629000000000003,-2.945272498268018,5,"Mg,Na,O,Si,Ta",Na12Mg2Ta4(SiO4)9,mp-2716369
2.9629000000000003,-2.9024926563749993,4,"Ca,O,Sb,Si",Ca3Si3(SbO6)2,mp-1331145
2.963599999999999,-2.568355494602731,6,"Ga,Na,O,S,Sc,Si",Na6Sc2Ga2Si3(SO8)3,mp-2716180
2.9637000000000002,-2.408573081234948,6,"Al,Na,O,S,Si,Zn",Na8Al2Zn2Si3(SO8)3,mp-2715095
2.964,-2.524812517529761,4,"Fe,Li,O,Si",LiFeSiO4,mp-759401
2.9644999999999992,-2.518014955476189,4,"Fe,Li,O,Si",LiFeSiO4,mp-764348
2.9646,-3.062394747331897,5,"Na,Nb,O,Si,Zr",Na3ZrNb(SiO4)3,mp-2715349
2.9648,-2.5479091063475723,6,"In,Na,O,P,Si,Sn",Na7In2Si3Sn2(PO8)3,mp-2714848
2.9652000000000003,-0.2768499425,5,"C,Cu,H,O,Si",CuSi2H18C9O2,mp-698318
2.9657,-2.556077363314039,6,"Ge,Na,O,P,Si,Sn",Na3Si2SnGePO12,mp-2715350
2.9659,-2.8599225048841,6,"Na,O,S,Sc,Si,Ta",Na10Sc6Ta2Si7S5O48,mp-2714100
2.9662,-3.104056398331896,5,"Hf,Na,Nb,O,Si",Na3HfNb(SiO4)3,mp-2715481
2.9668,-2.602752659443436,6,"Mg,Na,O,S,Si,Zr",Na2MgZrSi(SO6)2,mp-2713226
2.9676,-2.832385607377647,6,"Na,O,S,Si,Ta,Y",Na4Y3TaSi3(SO8)3,mp-2713559
2.9678999999999993,-2.584915306290504,6,"In,Na,O,S,Si,Ta",Na8TaIn3Si5SO24,mp-2716134
2.968,-2.845776680666667,3,"O,Si,Sn",Si4SnO10,mp-1043403
2.9683,-3.011956288297529,5,"Na,Nb,O,P,Si",NaNb2Si2PO12,mp-2713518
2.9687,-3.154895519940477,4,"K,O,Si,Ta",K3Ta3Si2O13,mp-16855
2.968899999999999,-2.651873399999999,3,"O,Si,W",Si2WO6,mp-1042247
2.9691,-3.189528822659484,6,"Ca,Fe,Mg,Na,O,Si",NaCa3Mg3Fe(SiO3)8,mp-1221119
2.969299999999999,-2.591105586160289,6,"Ga,La,Na,O,S,Si",Na14La4Ga4Si7S5O48,mp-2715659
2.9693,-2.5812695424390393,5,"Na,O,P,Si,Sn",Na3Si2Sn2PO12,mp-2715474
2.969699999999999,-2.706089080208333,4,"Fe,Li,O,Si",LiFe(SiO3)2,mp-757570