band_gap,formation_energy_per_atom,nelements,elements,formula,material_id
2.5461,-3.22832987221519,5,"Ca,Fe,Mg,O,Si",Ca8Mg5Fe2(SiO3)16,mp-532705
2.5473,-2.5535754722500013,4,"Co,O,Si,Zn",ZnCo(SiO3)2,mp-1264233
2.548599999999999,-2.952473356546181,6,"Ca,Na,O,P,Si,Ti",Na6CaTi3Si2(PO6)4,mp-2715370
2.5488,-2.892026146620668,6,"Na,Nb,O,P,Si,Zn",Na15Nb10Zn2Si15(PO24)3,mp-2716527
2.5489,-2.910881672056049,6,"Al,Na,Nb,O,P,Si",Na7Nb2Al2Si5PO24,mp-2714444
2.5498000000000003,-2.472176137261904,4,"Fe,Li,O,Si",LiFeSiO4,mp-758434
2.55,-3.11704877730058,6,"Hf,Na,O,P,Si,Ti",Na2HfTiSi(PO6)2,mp-2712614
2.5501,-2.795894095099314,6,"Al,Na,O,S,Si,Ta",Na14Ta2Al6Si9(SO16)3,mp-2714810
2.5502000000000002,-2.568087737118875,5,"Al,H,Na,O,Si",Na2Al2Si3(HO5)2,mp-1210489
2.551699999999999,-2.652727622150349,6,"Ga,Na,Nb,O,P,Si",Na6NbGa3Si2(PO6)4,mp-2715354
2.5545,-2.881049067154857,6,"Ga,Na,Nb,O,P,Si",Na5Nb3GaSi5PO24,mp-2716516
2.5551,-3.014165527563738,5,"Na,O,P,Si,Ti",Na2Ti2Si(PO6)2,mp-2712538
2.5558,-2.75594636087028,6,"Na,Nb,O,P,Si,Sn",NaNbSiSn(PO6)2,mp-2715563
2.555999999999999,-3.11025126948139,6,"Hf,Na,Nb,O,P,Si",NaHfNbSi(PO6)2,mp-2715628
2.5572,-3.036156545921182,6,"Na,Nb,O,P,Si,Y",Na6Y3NbSi2(PO6)4,mp-2715451
2.5574,-3.080951584973484,6,"Na,O,P,Si,Ti,Zr",Na3Zr2Ti2SiP5O24,mp-2713060
2.5579,-2.238283154679486,5,"Al,H,Li,O,Si",LiAlSi2H2O7,mp-1249890
2.558,-3.059915479502676,6,"Na,O,P,Si,Ta,Ti",NaTa2Ti2SiP5O24,mp-2715677
2.5584,-3.028360949936063,6,"Hf,Na,O,S,Si,Ti",Na6Hf2Ti2Si5SO24,mp-2713974
2.5586,-3.403370888730469,4,"Er,O,Se,Si",Er2SiSeO4,mp-17633
2.5587,-2.688097476705883,5,"O,S,Sc,Si,Ta",ScTaSi(SO6)2,mp-2713398
2.5593,-2.879028676888373,6,"La,Na,O,S,Si,Ta",Na10La4Ta4Si9(SO16)3,mp-2714105
2.5594,-2.17923290116523,6,"Ga,Na,O,S,Si,Zn",Na3ZnGaSi(SO6)2,mp-2712622
2.5597000000000003,-2.7353019295342733,6,"Ga,Na,Nb,O,S,Si",Na14Nb4Ga4Si11SO48,mp-2714418
2.5602,-2.9522598046627353,6,"Hf,Na,O,S,Si,Ti",Na2HfTiSi2SO12,mp-2712682
2.5613,-3.401765284042968,4,"Ho,O,Se,Si",Ho2SiSeO4,mp-18584
2.5617,-3.1223848482167282,6,"Hf,Na,O,P,Si,Ti",Na3Hf2Ti2SiP5O24,mp-2713024
2.5620000000000003,-3.002951568077586,7,"Al,B,F,Fe,Na,O,Si",NaAl6Fe3Si6B3O30F,mp-18401
2.5634,-2.288455406060606,4,"Fe,Li,O,Si",Li2Fe2SiO6,mp-753647
2.5636,-2.949734516501622,5,"Na,Nb,O,Si,Zn",Na15Nb11Zn(SiO4)18,mp-2713356
2.5642,-2.651154827495211,6,"Ge,Na,O,S,Si,Ti",Na10Ti4Si9Ge4(SO16)3,mp-2714221
2.5644,-2.332844229509804,5,"Ge,O,S,Si,Ti",TiSiGe(SO6)2,mp-2713169
2.565299999999999,-2.504270649488917,6,"Na,O,S,Sc,Si,Zn",Na8Sc2Zn2Si3(SO8)3,mp-2715015
2.5664,-2.6690492575987053,6,"Mg,Na,O,S,Si,Ta",Na12Mg4Ta2Si6(SO12)3,mp-2714480
2.5672,-2.56908935124159,6,"In,La,Na,O,S,Si",Na14La4In4Si7S5O48,mp-2715818
2.5673,-2.873831552499687,6,"Ca,Na,O,P,Si,Ta",Na4CaTaSi2PO12,mp-2715712
2.5673,-2.265463138069727,5,"Fe,Li,O,P,Si",LiFe3SiPO8,mp-743761
2.5679,-2.664513616749999,4,"Ca,Fe,O,Si",Ca3Fe7(SiO4)6,mp-1227996
2.5681000000000003,-2.530598284343502,6,"Al,Ge,Na,O,S,Si",Na5Al3Si3Ge(SO8)3,mp-2713525
2.5681000000000003,-3.230934103888889,3,"O,Si,Ti",TiSiO4,mp-1101756
2.5691,-2.991832444421507,6,"Na,Nb,O,S,Si,Zr",Na4Zr2Nb2Si5SO24,mp-2715077
2.5692,-2.339278620847775,6,"In,Na,O,S,Si,Ta",Na10TaIn7Si6(SO8)6,mp-2713172
2.569499999999999,-3.079444635511364,6,"Al,Ca,Fe,H,O,Si",Ca2Al2FeSi3HO13,mp-696825
2.570599999999999,-2.9220774376225482,6,"Al,H,Mg,O,Si,Ti",Mg7TiAl6Si8(H4O19)2,mp-1222471
2.571399999999999,-1.136135429714287,5,"C,Cl,O,Os,Si",Si2Os3C12(ClO2)6,mp-648117
2.5731,-2.707745074310534,6,"Na,O,P,Si,Ta,Zn",Na5Ta2Zn2SiP5O24,mp-2716070
2.5741,-3.104617994512198,6,"Hf,Na,Nb,O,P,Si",NaHf2Nb2SiP5O24,mp-2715748
2.5741,-3.00470553411102,6,"Na,Nb,O,P,Si,Ti",NaTiNbSi(PO6)2,mp-2715783
2.5743,-3.405426772897135,4,"Dy,O,Se,Si",Dy2SiSeO4,mp-18219
2.5749,-2.4007346848303053,6,"Na,O,S,Si,Zn,Zr",Na6Zr4Zn4Si3(S3O16)3,mp-2713759
2.575299999999999,-3.19648922055908,6,"Ca,Cl,Er,O,Se,Si",CaEr15Si8Se11ClO28,mp-720985
2.575599999999999,-2.755748865897374,6,"Ga,Na,Nb,O,P,Si",Na3NbGaSi2PO12,mp-2715500
2.5772999999999993,-2.8015868094809813,6,"Mg,Na,O,S,Si,Ta",Na8Mg2Ta2Si5SO24,mp-2715618
2.5775,-1.739632244861111,4,"N,O,Si,Y",Y3Si5N9O,mp-1207796
2.5779,-2.746263725284483,5,"Fe,Li,Na,O,Si",NaLi3Fe4(SiO3)8,mp-775132
2.5807,-2.567252973863636,3,"O,Si,Sn",Si2Sn2O7,mp-769046
2.5810999999999993,-2.300815369666667,4,"Li,Ni,O,Si",Li2Si4Ni5O14,mp-1651525
2.582099999999999,-2.933237269213973,6,"Al,Na,O,P,Si,Ti",Na4TiAlSi2PO12,mp-2715724
2.5826000000000002,-2.70121093847773,6,"Hf,Mg,Na,O,S,Si",Na6Hf2Mg2Si3(SO8)3,mp-2716190
2.5827,-2.7865962885818982,6,"Al,Na,O,S,Si,Ti",Na3TiAlSi2SO12,mp-2714372
2.5827,-2.643430484895834,4,"Fe,Li,O,Si",Li2Fe2(SiO3)3,mp-861716
2.5831,-3.063297819042146,5,"Ca,F,Na,O,Si",NaCa2SiO4F,mp-684821
2.5839,-3.4091315291471362,4,"O,Se,Si,Tb",Tb2SiSeO4,mp-17913
2.584399999999999,-2.786465470047307,6,"Ga,Na,O,P,Si,Ti",Na4TiGaSi2PO12,mp-2715821
2.5845000000000002,-3.059558867845532,6,"Na,Nb,O,P,Si,Zr",NaZr2Nb2SiP5O24,mp-2715770
2.5861,-2.941557476499999,3,"Mg,O,Si",MgSiO3,mp-657336
2.5867,-2.761990586974749,6,"Ga,Na,Nb,O,P,Si",Na7Nb2Ga2Si5PO24,mp-2714371
2.5869,-2.734573314036009,6,"Na,Nb,O,P,Si,Sn",NaNb2SiSn2P5O24,mp-2715645
2.5874,-2.954691601568965,6,"Al,Ca,Mg,Na,O,Si",NaCaMgAl(SiO3)4,mp-720244
2.5874,-2.766164678333333,4,"Cr,Li,O,Si",LiCrSiO4,mp-763610
2.587499999999999,-2.385250982593216,6,"Ca,Ga,Na,O,S,Si",Na7CaGa3Si3(SO8)3,mp-2714210
2.588,-2.892651929474778,6,"Na,Nb,O,S,Si,Zr",NaZrNbSi2SO12,mp-2715804
2.588899999999999,-2.547846429427084,4,"Cr,Li,O,Si",Li2CrSiO4,mp-757502
2.590799999999999,-2.880875714912849,6,"Ca,Na,O,P,Si,Ta",Na3CaTaSi(PO6)2,mp-2715225
2.591,-2.598208201395191,6,"Hf,In,Na,O,S,Si",Na4Hf2In2Si3(SO8)3,mp-2713685
2.5914,-2.0705620653125,4,"H,O,Rb,Si",Rb5SiHO5,mp-861513
2.5924,-2.854483076256336,7,"F,Na,Nb,O,P,Si,Ti",Na11TiNb2Si4P2O25F,mp-1221508
2.5931,-2.781872059421506,6,"Mg,Na,O,S,Si,Zr",Na4MgZr3Si3(SO8)3,mp-2713651
2.5934,-2.53882710866523,6,"Al,Na,O,S,Si,Sn",Na3AlSi2SnSO12,mp-2714562
2.593499999999999,-3.246061535312499,4,"Nd,O,S,Si",Nd4Si2S3O7,mp-14835
2.5938,-2.7134058423798013,6,"In,Na,Nb,O,S,Si",Na14Nb4In4Si11SO48,mp-2714589
2.5940000000000003,-2.991546583040504,5,"Na,Nb,O,Sc,Si",Na4ScNb(SiO4)3,mp-2716353
2.5951,-3.215754748760684,5,"Al,Ca,O,Si,Tl",Ca5Al11TlSi13O48,mp-1254519
2.5959000000000003,-2.7510964171359,6,"Ge,Na,O,S,Si,Ti",Na14Ti4Si11Ge4SO48,mp-2714388
2.5967000000000002,-2.598471316296182,6,"Mg,Na,O,P,Si,Sn",Na6MgSi2Sn3(PO6)4,mp-2715419
2.596899999999999,-2.59784330629902,5,"Mg,O,S,Si,Zr",MgZr3SiS5O24,mp-2713085
2.596999999999999,-2.711249729121183,6,"Na,O,P,Si,Ta,Zn",Na3TaZnSi(PO6)2,mp-2715447
2.5971,-2.771702963333333,4,"Li,O,Si,V",LiVSiO4,mp-766049
2.5972,-2.7217515618050543,6,"Ca,Na,O,S,Si,Ta",Na12Ca4Ta2Si6(SO12)3,mp-2714553
2.597799999999999,-2.652695438733682,6,"Ga,Na,Nb,O,P,Si",Na6NbGa3Si2(PO6)4,mp-2715484
2.598,-2.57302816796748,4,"Fe,Li,O,Si",Li5Fe5Si7O24,mp-860959
2.598499999999999,-2.633381303214286,4,"Co,Mg,O,Si",MgCoSiO4,mp-1222111
2.5986000000000002,-3.076822898090053,6,"Na,O,P,Si,Ti,Zr",Na2ZrTiSi(PO6)2,mp-2712751
2.598799999999999,-3.127196104715908,6,"Al,Ca,Fe,H,O,Si",Ca8Al9Fe3Si12(HO13)4,mp-1227544
2.5989999999999993,-2.692261294047618,4,"Cr,Li,O,Si",LiCrSiO4,mp-758745
2.599,-2.698796550888864,6,"Al,Na,O,S,Si,Zr",Na6Zr4Al4Si5S7O48,mp-2715840
2.5991,-3.022693554884156,6,"Na,O,P,Si,Ti,Y",Na7Y2Ti2Si3(PO8)3,mp-2714730
2.5993999999999993,-3.054609996490149,4,"Ca,Mn,O,Si",CaMnSiO4,mp-1213991
2.5994,-3.234909018854166,4,"O,Pr,S,Si",Pr4Si2S3O7,mp-16159
2.5995,-2.722594159503696,6,"Na,O,S,Sc,Si,Zr",Na2Zr4Sc4Si3(S3O16)3,mp-2716392
2.599599999999999,-2.21413774433687,4,"Be,Na,O,Si",NaBeSi3O8,mp-727944
2.5999,-2.893387304690827,6,"Ca,Na,O,S,Si,Ta",Na3CaTa5Si6(SO12)3,mp-2715691
2.6001000000000003,-2.602845545123417,6,"Ca,Na,O,S,Sc,Si",Na10Ca4Sc4Si3(S3O16)3,mp-2714676
2.6004,-2.43107404,4,"Co,Li,O,Si",Li2CoSiO4,mp-762264
2.6008,-2.721304809333334,4,"Fe,Li,O,Si",LiFe(SiO3)2,mp-772502
2.6009,-3.380635908730468,4,"Nd,O,Se,Si",Nd2SiSeO4,mp-18466
2.6012,-2.8231092985004542,6,"La,Na,O,S,Si,Zr",Na4La2Zr2Si3(SO8)3,mp-2713647
2.6015,-3.677706238333333,4,"La,O,Si,Ti",La2Ti2SiO9,mp-559747
2.602299999999999,-2.8603256188700272,5,"Ca,Fe,Na,O,Si",Na12Ca3Fe2(SiO3)12,mp-1221962
2.6023,-3.048506457875,4,"Ca,Cr,O,Si",CaCr(SiO3)2,mp-1041945
2.6024000000000003,-2.975829658085523,5,"K,Na,O,Si,Ti",K3NaTi2(SiO4)3,mp-2716502
2.6025,-2.697313082051025,6,"Ge,Na,O,S,Si,Ta",Na6Ta4Si9Ge4(SO16)3,mp-2713049
2.6026,-2.732592033311063,6,"Ca,Hf,Na,O,S,Si",Na6Ca2Hf2Si3(SO8)3,mp-2716198
2.6026,-2.9682978092497203,6,"Na,Nb,O,S,Si,Y",Na14Y4Nb4Si11SO48,mp-2714446
2.602999999999999,-2.836595316812534,6,"Mg,Na,O,P,Si,Ta",Na21Mg8Ta4Si3(P5O24)3,mp-2715786
2.6036,-2.4579476149254242,6,"Ge,In,Na,O,S,Si",Na8In2Si5Ge2SO24,mp-2715779
2.603799999999999,-2.380800527908349,5,"Na,O,S,Si,Sn",Na2Si2Sn2SO12,mp-2712631
2.6038,-3.256275728593751,4,"O,S,Si,Sm",Sm4Si2S3O7,mp-6671
2.6039,-2.419537953734528,6,"Ge,Na,O,S,Si,Sn",Na10Si9Sn4Ge4(SO16)3,mp-2714032
2.6044,-2.937055706172774,4,"Li,Mn,O,Si",LiMn(Si2O5)2,mp-849757
2.6058,-2.789071418443349,3,"Mn,O,Si",MnSiO3,mp-5945
2.606199999999999,-2.083152839250375,5,"Al,H,Na,O,Si",Na2Al2Si3(HO3)4,mp-684868
2.6069,-2.7211882776293113,4,"F,Mn,O,Si",Mn3Si(O2F)2,mp-554429
2.607199999999999,-2.331401669613666,6,"Al,Na,O,S,Si,Sn",NaAlSiSn(SO6)2,mp-2712782
2.6081,-2.99029131310273,6,"Na,O,S,Si,Ti,Zr",Na6Zr2Ti2Si5SO24,mp-2713889
2.609199999999999,-2.645531308566244,6,"Ca,Na,O,S,Si,Zr",Na2CaZrSi(SO6)2,mp-2713259
2.6094,-2.672128683777262,6,"Na,O,S,Si,Sn,Ti",Na10Ti4Si9Sn4(SO16)3,mp-2714232
2.6096,-2.805163836034961,6,"Ga,Na,O,S,Si,Ta",Na2Ta3GaSi4(SO12)2,mp-2715649
2.611099999999999,-2.4417355616832452,5,"Na,O,S,Si,Sn",Na10Si9Sn8(SO16)3,mp-2714078
2.611799999999999,-2.5287815857293383,6,"In,Na,O,P,Si,Sn",Na5In2SiSn2P5O24,mp-2716003
2.611799999999999,-2.959348253285259,6,"La,Na,O,S,Si,Ta",Na6La2Ta6Si9(SO16)3,mp-2713006
2.611899999999999,-2.360687586923077,6,"Al,Ba,Er,N,O,Si",BaErAl3SiN4O3,mp-1214427
2.6135,-2.8855583437277312,5,"Ga,Na,Nb,O,Si",Na6Nb3Ga(SiO4)6,mp-2715283
2.6141,-2.990460556896921,6,"Hf,Na,O,S,Si,Ti",Na10Hf4Ti4Si9(SO16)3,mp-2714065
2.6141,-3.127006502784089,6,"Al,Ca,Fe,H,O,Si",Ca8Al9Fe3Si12(HO13)4,mp-1227584
2.614299999999999,-2.518561318421645,6,"Ga,Ge,Na,O,P,Si",Na5Ga2SiGe2P5O24,mp-2715877
2.6143,-2.195422109423076,5,"C,Fe,Li,O,Si",Li3FeSiCO7,mp-770822
2.614699999999999,-2.45051476425,3,"Co,O,Si",CoSiO3,mp-699575
2.615,-2.943919943269397,5,"Na,O,S,Si,Ti",Na6Ti4Si5SO24,mp-2713908
2.6151,-2.741768243437499,4,"Cd,Mg,O,Si",Mg14CdSiO16,mp-1034777
2.6158,-2.700381875083627,6,"Ge,Na,Nb,O,P,Si",NaNb2SiGe2P5O24,mp-2715802
2.6159,-2.936791997067369,6,"Hf,Na,Nb,O,S,Si",NaHfNbSi2SO12,mp-2715722
2.616599999999999,-2.6478004172666942,6,"Mg,Na,O,S,Sc,Si",Na8Mg2Sc2Si3(SO8)3,mp-2715038
2.617,-2.777761239637213,4,"Li,Mn,O,Si",Li2Mn2(SiO3)3,mp-772645
2.6182,-2.942624312424242,4,"Fe,Li,O,Si",LiFe(Si3O7)2,mp-863392
2.6185,-2.479794953690475,4,"Fe,Li,O,Si",LiFeSiO4,mp-759053
2.6188000000000002,-2.729298733260869,4,"Bi,Mg,O,Si",Mg3Si4(BiO7)2,mp-1264854
2.6195,-2.955457299184771,6,"Ca,Na,Nb,O,P,Si",Na15Ca2Nb10Si15(PO24)3,mp-2716552
2.6197,-2.932597174607964,6,"Na,Nb,O,S,Si,Y",Na8Y3NbSi5SO24,mp-2716264
2.6199,-2.702770928043104,4,"Mn,O,Si,Zn",MnZn(SiO3)2,mp-1041863
2.6199,-2.53164795646285,6,"Ga,Ge,Na,O,P,Si",Na3GaSiGe(PO6)2,mp-2715401
2.6207000000000003,-2.765346122689035,6,"In,Na,O,P,Si,Ti",Na7Ti2In2Si3(PO8)3,mp-2714995
2.6209,-2.066551296877647,6,"In,Na,O,S,Si,Zn",Na4Zn2In2SiS5O24,mp-2713441
2.621699999999999,-2.701831316175893,6,"Na,Nb,O,S,Si,Sn",Na4Nb2Si5Sn2SO24,mp-2714939
2.6229,-0.5957850645270261,4,"C,Fe,O,Si",Fe4Si(CO)16,mp-653596
2.6234,-2.592503087603379,6,"Al,Ge,Na,O,S,Si",Na14Al4Si9Ge4(SO16)3,mp-2715195
2.6236,-2.873557797873564,5,"In,Na,Nb,O,Si",Na6Nb3In(SiO4)6,mp-2715299
2.6242,-2.668994915606061,4,"Fe,Li,O,Si",Li2Fe(SiO3)2,mp-863407
2.6252,-2.6244195339211833,6,"In,Na,Nb,O,P,Si",Na6NbIn3Si2(PO6)4,mp-2715469
2.6256,-3.02236422821749,6,"Na,O,P,Sc,Si,Ti",Na7Sc2Ti2Si3(PO8)3,mp-2714906
2.6275,-2.9811212493716712,5,"Na,O,S,Si,Ti",Na14Ti8Si11SO48,mp-2714563
2.6276,-2.962352349290229,5,"Al,Na,Nb,O,Si",Na6Nb3Al(SiO4)6,mp-2715286
2.6279,-3.451956334374998,4,"Ho,O,S,Si",Ho2SiSO4,mp-17366
2.6281,-2.4695719819047612,4,"Fe,Li,O,Si",LiFeSiO4,mp-752925
2.629,-2.7414572119655993,6,"Ga,Na,O,S,Si,Ta",Na2Ta6Ga2Si7S5O48,mp-2715776
2.6292,-2.998450308316243,6,"Na,O,S,Si,Ta,Ti",Na4Ta2Ti2Si5SO24,mp-2715161
2.6296,-2.621873811527982,6,"Na,O,P,Si,Ta,Zn",Na21Ta4Zn8Si3(P5O24)3,mp-2715744
2.6298,-2.534717181095639,6,"Al,Na,O,S,Si,Sn",Na5Al3Si3Sn(SO8)3,mp-2716565
2.6310000000000002,-2.653294477206595,6,"Ge,Na,O,S,Si,Zr",Na2ZrSi2GeSO12,mp-2712552
2.631199999999999,-2.4680834722619043,4,"Fe,Li,O,Si",LiFeSiO4,mp-861039
2.6317999999999993,-3.040210840495656,5,"Na,O,Si,Ta,Ti",Na7TaTi3(SiO4)6,mp-2712878
2.6336999999999993,-2.939626018789403,5,"In,O,P,Si,Ti",Ti6In2Si2P12O49,mp-560564
2.6343,-3.210516682307664,4,"Ba,O,Si,V",Ba2V(SiO4)2,mp-19179
2.6344000000000003,-2.916879865803086,6,"Na,O,S,Si,Ti,Zr",Na2ZrTiSi2SO12,mp-2712525
2.6351,-2.8639157923820333,5,"Na,O,S,Si,Ti",Na2Ti2Si2SO12,mp-2712636
2.6361,-3.039874924210527,3,"Ca,O,Si",Ca(SiO2)6,mp-1233212
2.6364,-2.321992029424899,6,"Al,Ga,Na,O,S,Si",Na6Al4Ga4Si3(S3O16)3,mp-2713796
2.6365,-2.722233316867896,6,"Na,O,P,Si,Ta,Zn",Na7Ta2Zn2Si3(PO8)3,mp-2715117
2.6382000000000003,-3.56873703047619,5,"Ba,Co,La,O,Si",BaLa8Co(Si3O13)2,mp-1228420
2.6384,-2.581669574831554,5,"K,Na,O,Si,Sn",K3NaSi3(SnO6)2,mp-2716393
2.6386000000000003,-2.998734905456897,5,"Na,Nb,O,Si,Y",Na6YNb3(SiO4)6,mp-2715489
2.6403,-2.976676171074271,5,"Mg,Na,Nb,O,Si",Na15MgNb11(SiO4)18,mp-2713524
2.641,-3.00329830866523,5,"Na,Nb,O,Sc,Si",Na6ScNb3(SiO4)6,mp-2715327
2.6413,-2.874219555857331,6,"La,Na,O,S,Si,Ta",Na6La4Ta4Si7S5O48,mp-2712845
2.6414,-3.110254309422866,6,"Hf,Na,O,P,Si,Ti",Na5Hf2Ti2Si3(PO8)3,mp-2714287
2.6416999999999993,-3.015575760875001,4,"Ca,Fe,O,Si",Ca3Fe2(SiO4)3,mp-6672
2.642199999999999,-2.415327059444444,3,"O,Pb,Si",Si2Pb3O7,mp-21767
2.6443,-2.415646886449274,4,"Li,Ni,O,Si",Li10Si2NiO10,mp-767066
2.6446,-2.774268218869047,4,"Li,O,Si,V",LiVSiO4,mp-849793
2.6449,-2.761689526516884,6,"Ge,Na,O,P,Si,Ti",Na5Ti2Si3Ge2(PO8)3,mp-2714257
2.6456,-2.6270777434313732,5,"Ba,O,Si,Te,Zn",Ba3Zn6Si4TeO20,mp-543034
2.646,-2.772007049374999,4,"Fe,Mg,O,Si",Mg14FeSiO16,mp-1035561
2.6464,-2.9346034744468383,4,"Ba,Mn,O,Si",BaMn2Si2O7,mp-1196057
2.647199999999999,-2.787578264038251,6,"Na,O,P,Si,Sn,Ti",Na5Ti2Si3Sn2(PO8)3,mp-2714240
2.6479,-1.9769511991047741,4,"H,Mn,O,Si",Mn2Si(H2O3)2,mp-726397
2.6492,-3.132775534749999,5,"Ca,Fe,O,Si,Zr",Ca3Zr2Fe2SiO12,mp-695062
2.6498,-2.267029834808663,6,"In,Na,O,S,Si,Zn",Na7ZnIn3Si3(SO8)3,mp-2714121
2.6502,-2.713830413711206,3,"Mn,O,Si",MnSiO3,mp-532143
2.650699999999999,-3.084584238666954,7,"Ba,Fe,K,Na,O,Si,Ti",KBaNa2Ti3Fe(Si2O9)2,mp-1223630
2.6507,-2.727776334322134,6,"Mg,Na,O,S,Si,Zr",Na10Mg3Zr5Si6(SO8)6,mp-2713472
2.651799999999999,-2.476810614047618,4,"Fe,Li,O,Si",LiFeSiO4,mp-756984
2.6521,-2.768478855833333,4,"Li,O,Si,V",LiVSiO4,mp-753797
2.6524,-2.432456038170453,6,"Al,Co,H,K,O,Si",KAlCo3Si3(HO6)2,mp-1223622
2.6525,-2.464812401724138,6,"In,La,Na,O,S,Si",Na2LaInSi(SO6)2,mp-2713257
2.652699999999999,-2.549953926594925,6,"In,Na,O,P,Si,Sn",Na4InSi2SnPO12,mp-2715794
2.653,-2.768741752048441,5,"Ga,Na,Nb,O,Si",Na4NbGa(SiO4)3,mp-2716409
2.6538,-2.660144944066666,4,"Cr,Li,O,Si",Li2Cr5(Si2O7)2,mp-867580
2.6549,-2.581722333456259,6,"Na,Nb,O,S,Si,Sn",NaNbSi2SnSO12,mp-2715587
2.6552,-2.8409609639858022,4,"Co,Na,O,Si",Na2Co(Si2O5)2,mp-18096
2.655599999999999,-2.724738109686064,6,"Na,O,S,Si,Sn,Ti",Na6Ti2Si5Sn2SO24,mp-2713907
2.6556,-3.665761096150794,4,"B,Gd,O,Si",Gd5Si2BO13,mp-1225149
2.6558,-2.989108100056416,5,"Na,Nb,O,P,Si",NaNb4Si3(PO8)3,mp-2714175
2.6559,-2.235407409999999,3,"O,Si,Zn",Zn2SiO4,mp-1020610
2.6572,-2.678716514290082,6,"Ca,Na,O,S,Si,Zr",Na10Ca4Zr4Si5S7O48,mp-2714997
2.6586,-2.786611457282531,6,"Ga,Na,O,P,Si,Ti",Na7Ti2Ga2Si3(PO8)3,mp-2714751
2.6586,-3.039923322423386,6,"Na,O,P,Si,Ta,Y",Na2YTaSi(PO6)2,mp-2712613
2.6586,-3.266689594166667,4,"O,S,Si,Tb",Tb4Si2S3O7,mp-16590
2.658699999999999,-2.9353165736591342,5,"Na,O,S,Si,Zr",Na6Zr8Si7S5O48,mp-2713014
2.6592000000000002,-2.936914676103668,6,"Al,Na,O,P,Si,Ti",Na7Ti2Al2Si3(PO8)3,mp-2714623
2.659399999999999,-2.776402362261905,4,"Li,O,Si,V",LiVSiO4,mp-753749
2.6599,-3.024342961171183,6,"Na,Nb,O,P,Sc,Si",Na6Sc3NbSi2(PO6)4,mp-2715236
2.662099999999999,-2.273504348035712,3,"O,Pb,Si",Si(PbO2)2,mp-555786
2.663899999999999,-2.887913370389771,6,"Ca,Na,O,P,Si,Ta",Na21Ca8Ta4Si3(P5O24)3,mp-2715559
2.6644,-2.284117283540231,6,"Na,O,S,Si,Zn,Zr",Na6ZrZn3Si2(SO6)4,mp-2712789
2.6644,-2.723605561729395,6,"Mg,Na,O,S,Si,Zr",Na14Mg4Zr4Si7S5O48,mp-2715575
2.6646,-2.528751876796181,6,"Ga,Ge,Na,O,P,Si",Na3GaSiGe(PO6)2,mp-2715512
2.6661,-2.563170504322918,4,"Co,Li,O,Si",Li2Co2(SiO3)3,mp-758342
2.6668000000000003,-2.15451597275,4,"O,Pb,Si,V",V2SiPb5O12,mp-1217159
2.6672000000000002,-2.7740170358333343,4,"Li,O,Si,V",LiVSiO4,mp-775350
2.667499999999999,-2.7910684796250003,4,"Mg,Mo,O,Si",Mg3Si3(MoO6)2,mp-1327088
2.6676,-2.983400999722372,6,"La,Na,O,P,Si,Ta",Na3LaTaSi2PO12,mp-2713673
2.6676,-2.264216628501477,6,"Ca,Ga,Na,O,S,Si",Na6Ca4Ga4SiS11O48,mp-2712702
2.6679,-2.9340139604016153,6,"Na,O,S,Si,Ti,Y",Na8Y2Ti2Si5SO24,mp-2716166
2.6679,-3.013941487605401,6,"Na,Nb,O,P,Si,Ti",Na3Ti2Nb2Si3(PO8)3,mp-2712999
2.6686,-2.91562779891352,5,"Al,Na,Nb,O,Si",Na4NbAl(SiO4)3,mp-2716384
2.668999999999999,-2.589033834789409,6,"Al,Na,O,S,Si,Zr",Na2Zr4Al4Si3(S3O16)3,mp-2716401
2.6696,-2.514282782580681,6,"In,Na,O,S,Si,Y",Na10Y4In4Si5S7O48,mp-2715165
2.6706000000000003,-2.349865712812499,4,"Mg,O,Si,Sn",Mg6SiSnO8,mp-1031460
2.6708,-2.555121765519397,6,"Ga,La,Na,O,S,Si",Na6La2Ga2Si3(SO8)3,mp-2716200
2.6710000000000003,-2.32191129122549,5,"Li,Ni,O,Rb,Si",Rb5LiSi2NiO8,mp-559477
2.6717999999999993,-2.956410770766046,5,"Al,Cd,O,Si,Tl",Al24Tl10Cd7(SiO4)24,mp-697313
2.6723,-2.770100974226191,4,"Li,O,Si,V",LiVSiO4,mp-766089
2.6764,-2.470389454047619,4,"Fe,Li,O,Si",LiFeSiO4,mp-757544
2.6768,-2.5862830018333343,3,"O,Si,Sn",SiSnO3,mp-776110
2.6769,-2.909382959550823,6,"Ca,Na,O,P,Si,Ta",Na7Ca2Ta2Si3(PO8)3,mp-2714858
2.6769,-3.400432430381943,6,"Ca,Dy,Fe,O,Si,Ti",Ca5DyTi5Fe(SiO5)6,mp-743624
2.677,-2.431820439166669,3,"O,Si,Zn",Zn2SiO4,mp-1020594
2.6773,-2.492674562098563,6,"In,Na,O,S,Si,Ta",Na6TaIn3Si4(SO12)2,mp-2714402
2.6793,-2.478518715719075,6,"In,Na,O,S,Si,Sn",Na8In2Si5Sn2SO24,mp-2716178
2.6795,-2.428733540286305,6,"Ca,Ga,Na,O,S,Si",Na14Ca4Ga4Si5S7O48,mp-2715857
2.6798,-2.877676253615864,6,"Mg,Na,O,P,Si,Ta",Na7Mg2Ta2Si3(PO8)3,mp-2714700
2.68,-3.261698823072915,4,"Dy,O,S,Si",Dy4Si2S3O7,mp-16587
2.6805000000000003,-2.717304518055243,6,"Na,O,P,Si,Ta,Zn",Na4TaZnSi2PO12,mp-2715542
2.6808,-2.999641355753758,5,"La,Na,Nb,O,Si",Na10LaNb7(SiO4)12,mp-2713533
2.6811,-3.080822898362158,6,"Na,O,P,Si,Ta,Ti",Na3Ta2Ti2Si3(PO8)3,mp-2713089
2.681599999999999,-2.830661885750822,6,"Ca,Na,O,S,Si,Ta",Na8Ca2Ta2Si5SO24,mp-2715745
2.681999999999999,-2.501444753249999,4,"Cr,O,Si,Zn",Zn3Cr2(SiO4)3,mp-1253507
2.6845,-2.567234243352731,6,"Ga,Na,O,S,Si,Y",Na6Y2Ga2Si3(SO8)3,mp-2716266
2.685699999999999,-2.974604554569585,6,"Ca,Na,O,P,Si,Ta",Na6Ca2Ta4Si3(PO6)6,mp-2712705
2.6857,-2.421369859999999,3,"O,Si,Zn",Zn2SiO4,mp-556163
2.686699999999999,-2.812701526294119,4,"Cu,K,O,Si",K2Cu(Si2O5)2,mp-558998
2.6875,-2.245603950294356,6,"Na,O,S,Si,Zn,Zr",Na10Zr2Zn6Si3(S3O16)3,mp-2714824
2.6892,-3.276577290021646,5,"Ba,Nb,O,Si,Ti",Ba6Ti2Nb10Si8O51,mp-677246
2.69,-2.986005415988801,5,"Al,Na,Nb,O,Si",Na10Nb7Al(SiO4)12,mp-2713429
2.6904,-2.5707560243229173,4,"Co,Li,O,Si",Li2Co2(SiO3)3,mp-758212
2.6927000000000003,-2.829718561035714,4,"Al,K,O,Si",KAlSiO4,mp-1223549
2.693,-3.393738472792969,4,"O,Se,Si,Sm",Sm2SiSeO4,mp-18610
2.6931000000000003,-2.755364106190476,4,"Li,O,Si,V",LiVSiO4,mp-753343
2.694,-3.207607646749999,5,"Ca,Fe,Hf,O,Si",Ca3Hf2Fe2SiO12,mp-693284
2.6946,-2.742999059805186,4,"Mo,O,P,Si",Si4Mo2P4O23,mp-553934
2.6946000000000003,-3.006193233377648,6,"La,Na,O,S,Si,Ta",Na4LaTa3Si5SO24,mp-2715005