band_gap,formation_energy_per_atom,nelements,elements,formula,material_id
1.4485000000000001,-2.384801146710935,6,"La,Na,O,S,Si,Sn",Na3LaSi3Sn3(SO8)3,mp-2714637
1.4487,-2.441363026717981,6,"Na,Nb,O,S,Si,Zn",Na6Nb16Zn8Si15(S7O48)3,mp-2716253
1.4493,-2.660816631101728,6,"Ca,Na,O,P,Si,Sn",Na4CaSiSn(PO6)2,mp-2714465
1.4506000000000001,-2.448466277792016,6,"Na,Nb,O,S,Si,Zn",Na9Nb7Zn5Si9(SO8)9,mp-2714671
1.450699999999999,-2.69078681475,4,"Be,Fe,O,Si",Be3Fe2(SiO4)3,mp-1047825
1.451,-2.593088079798501,6,"Ca,Na,Nb,O,S,Si",Na42Ca20Nb4Si15(S7O48)3,mp-2715896
1.451099999999999,-2.084735976767242,6,"Na,O,S,Si,Sn,Zn",Na6Zn4Si3Sn4(S3O16)3,mp-2713751
1.4516,-2.657044635110838,6,"Al,Na,Nb,O,S,Si",Na2Nb5Al3Si6(SO8)6,mp-2713785
1.452199999999999,-2.574583753,3,"Fe,O,Si",FeSiO3,mp-18269
1.4523000000000001,-2.330837103690477,4,"Co,Li,O,Si",LiCoSiO4,mp-762880
1.4525000000000001,-2.662605477979885,6,"Na,Nb,O,S,Sc,Si",Na2Sc6Nb2Si3(S3O16)3,mp-2716311
1.4533,-2.701512509305555,4,"Mg,O,Si,V",MgV2(SiO4)3,mp-1261307
1.4535999999999991,-2.567613034687329,6,"Mg,Na,O,S,Si,Ti",Na8Mg3TiSi3(SO8)3,mp-2715016
1.4536,-2.535621127316244,6,"Ga,Na,O,S,Si,Ti",Na4Ti2Ga2Si3(SO8)3,mp-2713696
1.4564,-2.752032216547618,4,"Li,O,Si,V",LiVSiO4,mp-767620
1.4603000000000002,-2.642842469708683,6,"Ca,Na,O,S,Si,Ta",Na6Ca4Ta4Si5S7O48,mp-2716046
1.461399999999999,-2.359167410647657,5,"Ca,H,Na,O,Si",Na2CaSi10(H3O10)2,mp-1210899
1.4618,-2.259510986018012,6,"Na,Nb,O,S,Si,Zn",Na42Nb4Zn20Si15(S7O48)3,mp-2712897
1.462999999999999,-2.215267584285709,3,"Cd,O,Si",Cd2SiO4,mp-4530
1.4635,-2.754904240978954,6,"Na,O,S,Sc,Si,Ti",Na6Sc4Ti4Si5S7O48,mp-2715949
1.4635,-2.286755689702381,4,"Co,Li,O,Si",LiCoSiO4,mp-765026
1.4646,-2.36556787625,4,"Ba,Mg,O,Si",BaMg6SiO8,mp-1030846
1.465799999999999,-2.304352385607552,4,"Al,Na,O,Si",Na2Al2Si3O14,mp-1204609
1.4658,-2.303787406790504,6,"Na,Nb,O,S,Si,Zn",Na24Nb2Zn10Si9(SO8)9,mp-2715066
1.466999999999999,-2.558069298409927,7,"Fe,H,K,Na,O,Si,Ti",K2NaTi2Fe7Si8H4O31,mp-1212500
1.4672,-2.783117635143949,8,"B,Cr,H,Mg,Na,O,Si,V",NaMg3V3Cr3Si6B3H3O31,mp-1221086
1.4685000000000001,-2.633086431328988,6,"Ca,Na,O,S,Si,Ta",Na7Ca3TaSi3(SO8)3,mp-2714034
1.469199999999999,-2.627666443904762,4,"Fe,Li,O,Si",Li5Fe4(Si3O10)2,mp-1177108
1.469799999999999,-2.138412330076628,6,"In,Na,O,S,Si,Sn",NaInSiSn(SO6)2,mp-2712550
1.4701,-2.112643501003695,5,"Ge,Na,O,S,Si",Na2Si5Ge8S7O48,mp-2716192
1.471099999999999,-2.658605047947,6,"La,Na,O,S,Si,Ti",NaLaTiSi(SO6)2,mp-2712642
1.4712,-2.66590274615942,4,"Cr,Li,O,Si",Li2Cr4Si4O13,mp-757512
1.4715,-2.370788914300766,6,"Mg,Na,O,S,Si,Sn",Na10Mg3Si6Sn5(SO8)6,mp-2713345
1.4724,-2.224772801428571,5,"Fe,O,Sb,Si,Y",Y4Fe13Si2(SbO14)2,mp-1248168
1.473,-2.317543833908456,6,"Ga,Na,O,S,Si,Y",Na2Y4Ga4SiS11O48,mp-2714220
1.4732999999999992,-3.075644051956232,5,"Ba,Cl,Mn,O,Si",Ba2MnSi2ClO7,mp-558848
1.4733,-2.415649306979166,4,"Ca,O,Si,Ti",CaTiSiO5,mp-704836
1.4734,-2.563966185740742,4,"Li,O,Si,V",Li4V3SiO10,mp-761711
1.474,-2.395984393501475,6,"Mg,Na,O,S,Si,Ti",Na6Mg6Ti2SiS11O48,mp-2713230
1.4753,-2.795111671521738,4,"Mg,Mo,O,Si",Mg3Si4(MoO7)2,mp-1248826
1.475899999999999,-2.019555407849461,4,"Fe,Li,O,Si",Li7Fe7SiO16,mp-765575
1.4767000000000001,-2.587682251609197,4,"Li,Mn,O,Si",LiMnSiO4,mp-780087
1.477599999999999,-2.96510584057971,5,"Ba,Li,O,Si,V",Ba2LiV2(Si2O7)2,mp-1235590
1.4804,-2.483355116159133,6,"Ga,Na,O,S,Si,Ti",Na6Ti4Ga4Si5S7O48,mp-2715953
1.4844,-2.416599380624999,4,"Mg,Nb,O,Si",Mg6NbSiO8,mp-1030833
1.484499999999999,-2.350756869615384,3,"Fe,O,Si",Fe3(SiO4)2,mp-28444
1.4845000000000002,-2.652437831796875,4,"C,Mg,O,Si",Mg14SiCO16,mp-1034615
1.4854,-2.51258870019237,6,"Na,O,S,Si,Sn,Ti",Na2Ti2Si3Sn2(SO8)3,mp-2713400
1.4857,-2.411527341146552,6,"Ga,Na,Nb,O,S,Si",Na2Nb4Ga4Si5S7O48,mp-2716179
1.4868000000000001,-2.302689975714285,4,"Co,Li,O,Si",LiCoSiO4,mp-759145
1.486899999999999,-2.512425979369869,6,"Ca,Ge,Na,O,S,Si",Na8Ca3Si3Ge(SO8)3,mp-2715061
1.4872,-2.294932395476189,4,"Co,Li,O,Si",LiCoSiO4,mp-759400
1.487699999999999,-2.856851485097259,4,"Li,Mn,O,Si",LiMnSi3O8,mp-757876
1.4878999999999991,-2.72069424725,4,"Be,O,Si,Sn",Be3Si3(SnO6)2,mp-1041318
1.489099999999999,-2.936675876284482,5,"Ca,Fe,Na,O,Si",NaCa3Fe4(SiO3)8,mp-1173734
1.4904,-2.187558969207317,3,"O,Rb,Si",Rb14Si10O17,mp-680306
1.4906000000000001,-2.779256073237296,6,"Na,O,S,Si,Ti,Y",Na4Y2Ti2Si3(SO8)3,mp-2713560
1.4913999999999992,-2.366023428415599,6,"Na,O,S,Si,Sn,Ta",NaTaSi3Sn3(SO8)3,mp-2714015
1.491699999999999,-2.592111433934679,6,"Mg,Na,O,S,Si,Ti",Na14Mg5Ti3Si6(SO8)6,mp-2714178
1.4925000000000002,-2.722854545794436,6,"Ca,Na,O,S,Si,Ti",Na14Ca4Ti4Si7S5O48,mp-2715657
1.4926,-2.699441308500455,6,"Al,Na,O,S,Si,Ti",Na4Ti2Al2Si3(SO8)3,mp-2713582
1.495,-2.776215941766443,5,"Na,O,S,Si,Ti",Na2Ti4Si3(SO8)3,mp-2713431
1.4951,-2.694759917116014,5,"O,S,Si,Ta,Zn",Ta10Zn2Si9(SO8)9,mp-2713771
1.4957,-2.512408545333333,4,"Fe,Li,O,Si",Li3Fe2(SiO4)2,mp-1306409
1.496,-0.5064161912214611,6,"C,Cl,H,O,Si,Ti",Ti2Si7H42C14(Cl3O)2,mp-1199188
1.4973,-2.305671184761905,4,"Co,Li,O,Si",LiCoSiO4,mp-763253
1.4988000000000001,-2.06746765478941,6,"Ga,Na,O,S,Si,Sn",Na2Ga4Si3Sn4(S3O16)3,mp-2716330
1.500499999999999,-2.930028342083334,3,"O,Si,V",V(SiO3)2,mp-766689
1.5008,-2.435226496395191,6,"Mg,Na,O,S,Si,Ti",Na4Mg3TiSiS5O24,mp-2713493
1.5009000000000001,-2.795082007619048,4,"Li,O,Si,V",LiVSiO4,mp-766083
1.5009000000000001,-2.590791345404629,6,"Mg,Na,Nb,O,S,Si",Na9Mg5Nb7Si9(SO8)9,mp-2714705
1.5014999999999992,-2.591574195892647,6,"Na,O,S,Si,Sn,Y",Na10Y4Si7Sn4S5O48,mp-2715968
1.5028000000000001,-2.290656709246068,6,"Ge,Mg,Na,O,S,Si",Na4Mg3SiGeS5O24,mp-2713133
1.5037,-2.4050906527987,6,"Ca,Na,O,S,Si,Sn",Na4Ca3SiSnS5O24,mp-2713339
1.505799999999999,-2.491183412877555,6,"Ge,Na,O,S,Si,Ti",Na2Ti2Si3Ge2(SO8)3,mp-2713413
1.5062000000000002,-2.373147661373261,6,"Na,O,S,Si,Ti,Zn",Na2TiZnSi(SO6)2,mp-2713578
1.5091,-2.220669778162322,6,"Ge,Na,O,S,Si,Zn",Na14Zn5Si6Ge3(SO8)6,mp-2714242
1.5102,-2.328180934404763,4,"Co,Li,O,Si",LiCoSiO4,mp-758135
1.5112,-2.546388369354185,6,"In,Na,O,S,Si,Ti",Na10Ti4In4Si7S5O48,mp-2715957
1.5122,-1.579683229999991,3,"Hg,O,Si",Si2Hg6O7,mp-28712
1.5122,-2.279964542758233,5,"Ge,Na,O,S,Si",Na6Si7Ge8S5O48,mp-2713022
1.513199999999999,-2.78116882297812,5,"Ag,Al,Na,O,Si",Na4Al11Si13Ag7O48,mp-695373
1.5133,-2.118248399312286,6,"Na,O,S,Si,Ti,Zn",Na6Ti2Zn6SiS11O48,mp-2712820
1.5138,-2.409871404908457,6,"Ge,Na,O,S,Si,Ti",Na2Ti4Si5Ge4S7O48,mp-2716158
1.5138999999999991,-2.307472315785809,6,"Na,Nb,O,S,Si,Zn",Na30Nb8Zn16Si15(S7O48)3,mp-2715106
1.5146000000000002,-2.524433562465107,6,"Ca,Na,O,S,Si,Sn",Na8Ca3Si3Sn(SO8)3,mp-2715168
1.515699999999999,-2.531006944004515,6,"In,Na,O,P,Si,Sn",Na3InSiSn(PO6)2,mp-2715376
1.5158,-2.084587497275703,5,"Ga,Na,O,S,Si",Na2Ga4SiS5O24,mp-2714573
1.5163000000000002,-2.967735818405796,5,"Ba,Li,O,Si,V",Ba2LiV2(Si2O7)2,mp-1235820
1.517399999999999,-2.321630867261906,4,"Co,Li,O,Si",LiCoSiO4,mp-778061
1.5178,-2.355282984323548,6,"Ge,Na,O,S,Si,Y",Na3YSi3Ge3(SO8)3,mp-2714699
1.5179,-2.187149556020407,5,"O,Sb,Si,Sn,Y",Y4Si2Sn13(SbO14)2,mp-1044157
1.5203,-2.783661487083334,4,"Li,Ni,O,Si",LiSi4NiO10,mp-765576
1.5203,-3.158794070344829,3,"Al,O,Si",Al8(SiO6)3,mp-1247920
1.5224,-2.7581540068114503,6,"Mg,Na,Nb,O,S,Si",Na30Mg8Nb16Si27(SO16)9,mp-2714199
1.522599999999999,-2.775377485501477,6,"Na,O,S,Si,Ta,Y",Na6Y6Ta2Si5S7O48,mp-2715960
1.5226000000000002,-3.095505100214491,6,"Ca,H,Na,O,Si,Zr",Na2CaZr2Si10HO26,mp-1212565
1.5234,-2.829848942744718,6,"In,Na,O,S,Si,Ta",Na6Ta6In2Si9(SO16)3,mp-2712825
1.5244,-2.937264426388889,3,"O,Si,V",V(SiO3)2,mp-1265975
1.5246,-2.7770137469136382,6,"Na,Nb,O,S,Sc,Si",Na6Sc5Nb3Si6(SO8)6,mp-2714681
1.524899999999999,-2.422230739610153,6,"Na,O,S,Si,Ta,Zn",Na42Ta8Zn16Si21(S5O48)3,mp-2715747
1.5265,-2.711206971722197,6,"Al,Na,Nb,O,S,Si",Na6Nb4Al4Si7S5O48,mp-2712938
1.5271,-2.244051979932266,6,"Al,Na,O,S,Si,Sn",Na2Al4Si3Sn4(S3O16)3,mp-2716439
1.5274,-2.536371325062729,6,"Na,O,S,Si,Ti,Zn",Na14Ti4Zn4Si7S5O48,mp-2715759
1.5277,-3.063230918043478,5,"Ba,Mg,O,Si,V",Ba2MgV2(Si2O7)2,mp-1234882
1.528,-2.5831749187878783,4,"Cr,Li,O,Si",Li2Cr(SiO3)2,mp-753193
1.5291000000000001,-2.522828097,4,"Fe,Li,O,Si",Li3Fe2(SiO4)2,mp-1177702
1.529399999999999,-2.403900581004902,5,"Ge,Nb,O,S,Si",Nb2Si3Ge2(SO8)3,mp-2713904
1.5302,-1.760011523000002,3,"O,Si,Tl",Tl6Si2O7,mp-1216932
1.5304000000000002,-2.61609038960508,6,"Na,O,S,Si,Sn,Zr",Na6Zr4Si7Sn4S5O48,mp-2712859
1.530999999999999,-2.28769490831476,6,"Ge,Na,O,S,Si,Zn",Na14Zn4Si7Ge4S5O48,mp-2715672
1.5324,-2.287009826190477,4,"Co,Li,O,Si",LiCoSiO4,mp-765142
1.532499999999999,-1.965413124946235,4,"Fe,Li,O,Si",Li7Fe7SiO16,mp-756759
1.5325,-2.437781545776251,6,"Ga,Na,Nb,O,S,Si",Na6Nb3Ga5Si6(SO8)6,mp-2714622
1.532599999999999,-2.7144933421739132,4,"Co,Mg,O,Si",Mg3Co2(Si2O7)2,mp-1254259
1.533,-1.0741057928125,5,"Al,Ba,N,O,Si",BaAlSi5N7O2,mp-706268
1.533599999999999,-2.815448189183246,6,"Na,O,S,Si,Ti,Y",Na10Y4Ti4Si7S5O48,mp-2715888
1.534,-2.479703702831897,6,"Na,Nb,O,S,Si,Zn",Na3NbZnSi2SO12,mp-2714513
1.538199999999999,-2.78954005047619,4,"Li,O,Si,V",LiVSiO4,mp-802523
1.5385,-2.536412734525125,6,"Ca,Na,Nb,O,S,Si",Na30Ca20Nb4Si9(S3O16)9,mp-2714668
1.539699999999999,-1.916748084166667,5,"Al,N,O,Si,Sm",Sm4AlSi5(NO)7,mp-681911
1.5418,-2.518799269743295,6,"Mg,Na,O,S,Si,Ta",NaMgTaSi(SO6)2,mp-2712720
1.5418999999999992,-2.499411177,4,"Fe,Li,O,Si",Li3Fe2(SiO4)2,mp-774106
1.5438,-2.642744309483459,6,"Ca,Na,O,S,Si,Ti",Na14Ca5Ti3Si6(SO8)6,mp-2714254
1.544,-2.768919104739582,5,"Ba,Fe,O,Si,Ti",BaTiFe2(SiO5)2,mp-818286
1.5441999999999991,-2.883580096217981,6,"Hf,Na,Nb,O,S,Si",Na2Hf4Nb4Si7S5O48,mp-2715614
1.5452,-1.75128133625,4,"Ca,O,Si,Sn",CaSiSnO5,mp-726359
1.545399999999999,-2.343364710353379,6,"Na,O,S,Si,Ta,Zn",Na7TaZn3Si3(SO8)3,mp-2714282
1.546,-2.786403970126438,4,"Li,Mn,O,Si",LiMn(SiO3)2,mp-752832
1.5463,-2.350958834909741,6,"Mg,Na,O,S,Si,Sn",Na10Mg6Si3Sn2(S3O16)3,mp-2714896
1.5483,-2.8910452415625,4,"Cd,Mg,O,Si",Mg30CdSiO32,mp-1039856
1.5485,-2.755583014357332,6,"La,Na,O,S,Si,Ti",Na6La4Ti4Si5S7O48,mp-2715862
1.5492,-2.7671112273032783,6,"Na,O,S,Sc,Si,Ta",Na6Sc6Ta2Si5S7O48,mp-2715983
1.551299999999999,-2.774695615869565,4,"Mg,O,Si,Sn",Mg3Si4(SnO7)2,mp-1248487
1.5513,-2.484417268321296,6,"Ca,Na,O,S,Si,Ti",Na6Ca6Ti2SiS11O48,mp-2713611
1.5515999999999992,-2.819805311226702,5,"Na,O,S,Si,Ti",Na6Ti8Si7S5O48,mp-2712866
1.552899999999999,-2.181486295714285,3,"Cd,O,Si",Cd2SiO4,mp-660318
1.5535,-2.4626429506992342,6,"Ge,Mg,Na,O,S,Si",Na4MgSi2GeSO12,mp-2714387
1.553999999999999,-2.239886449058533,6,"Na,O,S,Si,Ta,Zn",Na18Ta8Zn16Si9(S3O16)9,mp-2713831
1.5553,-2.464292088123563,6,"Mg,Na,Nb,O,S,Si",Na9Mg5NbSi3(SO6)6,mp-2712587
1.5553,-2.361543740007184,6,"Ga,La,Na,O,S,Si",Na2La2Ga2SiS5O24,mp-2715577
1.557599999999999,-1.9152068808333331,4,"Fe,H,O,Si",Fe7Si3(H4O9)2,mp-1225755
1.557799999999999,-2.464368946314313,6,"Na,O,S,Si,Sn,Zn",Na8ZnSi5Sn3SO24,mp-2715753
1.557799999999999,-3.025219747258065,4,"Ca,Cr,O,Si",CaCr2(Si2O5)4,mp-1329473
1.5579,-2.8374622928708453,6,"Ca,Na,Nb,O,S,Si",Na18Ca4Nb20Si27(SO16)9,mp-2712918
1.5579,-2.682719497379802,6,"Mg,Na,O,S,Si,Ti",Na14Mg4Ti4Si7S5O48,mp-2715560
1.5587,-2.7853323565625,4,"Cr,Mg,O,Si",Mg14CrSiO16,mp-1034815
1.5590000000000002,-2.688049589999999,4,"Ba,Mg,O,Si",BaMg14SiO16,mp-1034741
1.5634000000000001,-2.625271539593069,6,"Na,O,S,Si,Ta,Zn",Na18Ta16Zn8Si21(S5O48)3,mp-2712961
1.563699999999999,-2.7814477992473483,6,"Ca,Na,Nb,O,S,Si",Na30Ca8Nb16Si27(SO16)9,mp-2714311
1.5669,-2.390349490781251,4,"C,N,O,Si",Si9C4NO18,mp-727207
1.5682,-2.613980326792661,5,"B,Na,O,Si,V",Na3VSiBO7,mp-771154
1.569799999999999,-2.443748017272384,6,"Al,Na,O,S,Si,Sn",Na4Al2Si3Sn2(SO8)3,mp-2713666
1.571899999999999,-2.147352104666666,4,"Fe,Li,O,Si",Li3Fe3SiO8,mp-752904
1.5741,-1.561508779357142,3,"H,O,Si",Si2H2O3,mp-1179509
1.5748000000000002,-2.515082657861933,6,"Ge,Mg,Na,O,S,Si",Na8MgSi5Ge3SO24,mp-2715713
1.576299999999999,-2.724268769062499,4,"Mg,Nb,O,Si",Mg14NbSiO16,mp-1034765
1.578699999999999,-2.269371483333332,4,"N,O,Pr,Si",Pr3SiN3O2,mp-1219842
1.5790000000000002,-2.524227219509226,6,"Ca,Na,O,S,Si,Ti",Na4Ca3TiSiS5O24,mp-2713352
1.5807,-2.868352482068965,5,"Ca,Fe,Na,O,Si",NaCaFe2(SiO3)4,mp-694890
1.5807,-2.499964996474449,6,"La,Na,O,S,Si,Sn",Na6La4Si5Sn4S7O48,mp-2716094
1.581,-2.526269605432267,6,"Ga,Na,Nb,O,S,Si",Na2Nb5Ga3Si6(SO8)6,mp-2714013
1.5814,-2.7278314063584572,6,"Mg,Na,O,S,Si,Ta",NaMgTa3Si3(SO8)3,mp-2713965
1.5815000000000001,-2.208838541779412,5,"O,S,Si,Ta,Zn",Ta2Zn2SiS5O24,mp-2713051
1.5835,-2.783302124270834,4,"Li,O,Si,V",Li2V2(SiO3)3,mp-771775
1.5845,-2.1806586765000002,4,"Ca,Fe,O,Si",CaFe3Si2O9,mp-1204015
1.5876000000000001,-1.901782148000005,3,"O,Si,Tl",Tl6Si2O7,mp-27228
1.5882,-2.771737008611111,4,"Li,O,Si,V",Li2V2Si2O9,mp-766119
1.588499999999999,-2.755383765504517,6,"La,Na,O,P,Si,Sn",Na3LaSiSn(PO6)2,mp-2715438
1.589,-2.689883142875,4,"Ca,O,Si,W",CaSi2WO6,mp-1041992
1.5903,-2.49302440616029,6,"Ca,Na,O,S,Si,Sn",Na14Ca4Si7Sn4S5O48,mp-2715536
1.5904,-2.694696899335889,6,"Na,O,S,Si,Ti,Y",NaYTiSi(SO6)2,mp-2712567
1.5915,-1.512676659214285,3,"H,O,Si",Si2H2O3,mp-627206
1.5936,-2.632499042915229,6,"Mg,Na,Nb,O,S,Si",Na3MgNbSi2SO12,mp-2714404
1.593799999999999,-2.068995607912887,6,"Na,O,S,Si,Ta,Zn",Na18Ta4Zn20Si3(S11O48)3,mp-2713301
1.593999999999999,-2.6338056744117653,5,"Nb,O,S,Si,Y",YNbSi(SO6)2,mp-2713406
1.598700000000001,-2.25099209296875,4,"C,Mg,O,Si",Mg6SiCO8,mp-1030861
1.598799999999998,-2.552895291533673,6,"Ge,Na,O,S,Si,Y",Na10Y4Si7Ge4S5O48,mp-2715884
1.5996000000000001,-2.464110312003694,6,"Ge,Na,O,S,Si,Zr",Na2Zr4Si5Ge4S7O48,mp-2716153
1.5998,-3.089458676470588,2,"O,Si",SiO2,mp-1244965
1.6004,-2.335748273729885,6,"Na,Nb,O,S,Si,Sn",NaNbSi3Sn3(SO8)3,mp-2713975
1.601,-2.117928271111111,4,"Cu,Li,O,Si",LiCu3(SiO3)2,mp-1176748
1.6018,-2.8351318902630522,5,"Ag,Al,K,O,Si",K6Al11Si13Ag5O48,mp-686585
1.6027,-2.715170008651962,5,"Nb,O,S,Si,Y",YNb3Si3(SO8)3,mp-2713971
1.602899999999999,-2.831312546749719,6,"Ca,Na,O,S,Si,Ti",Na14Ca2Ti6Si9(SO16)3,mp-2714815
1.6033,-2.419317252591565,6,"Na,O,S,Si,Ta,Zn",Na6Ta4Zn4Si5S7O48,mp-2716067
1.6034000000000002,-1.969833130888863,6,"Ge,Na,O,S,Si,Zn",Na6Zn6SiGe2S11O48,mp-2713547
1.6037,-2.559199448333333,4,"Cr,Li,O,Si",Li2CrSiO4,mp-758595
1.6048,-2.792911302623261,6,"Na,O,S,Sc,Si,Ti",Na4Sc2Ti2Si3(SO8)3,mp-2713720
1.604899999999998,-2.866338328818966,5,"Ca,Fe,Na,O,Si",NaCaFe2(SiO3)4,mp-1565615
1.6065,-2.715683043333333,2,"O,Si",SiO2,mp-555411
1.606799999999999,-2.518497882999999,4,"Fe,Li,O,Si",Li3Fe2(SiO4)2,mp-1177679
1.607899999999999,-2.484482057058823,5,"Mg,Nb,O,S,Si",Mg2Nb4Si3(SO6)6,mp-2713513
1.607899999999999,-2.324841725476191,4,"Co,Li,O,Si",LiCoSiO4,mp-763256
1.6086,-2.3097827818328183,6,"Na,O,S,Si,Sn,Zn",Na10Zn2Si7Sn6S5O48,mp-2714061
1.6095000000000002,-2.833462583887256,5,"O,S,Si,Ta,Zr",Zr2Ta2Si3(SO8)3,mp-2713734
1.610599999999999,-2.364723923749999,3,"Mo,O,Si",SiMoO4,mp-1142857
1.610599999999999,-2.638183380025123,6,"Na,O,S,Si,Ta,Zn",NaTa3ZnSi3(SO8)3,mp-2714020
1.612,-1.445881561923077,6,"Al,N,O,Si,Sr,Tm",Sr3Tm3Al4Si8N17O4,mp-720205
1.612099999999999,-2.484334229828432,5,"Mg,O,S,Si,Ti",MgTi3SiS5O24,mp-2712827
1.6131,-2.541198647361111,2,"O,Si",SiO2,mp-683952
1.6137000000000001,-2.3941619910025542,6,"In,Na,O,S,Si,Ti",NaTiInSi(SO6)2,mp-2712697
1.614599999999999,-2.554778546155583,6,"Ca,Na,O,S,Si,Sn",Na8CaSi5Sn3SO24,mp-2715611
1.6155,-2.608286957291666,4,"Li,O,Si,V",Li2VSiO4,mp-753561
1.615999999999999,-2.509329974387255,5,"Ca,O,S,Si,Ti",CaTi3SiS5O24,mp-2713108
1.6162,-2.894671350729886,6,"Hf,Na,Nb,O,S,Si",NaHf3NbSi3(SO8)3,mp-2714016
1.6163,-2.435304068499485,6,"Mg,Na,Nb,O,S,Si",Na30Mg20Nb4Si9(S3O16)9,mp-2714748
1.6186999999999991,-2.7042281402941173,4,"Li,O,Si,V",Li3V2(SiO5)2,mp-779630
1.6189,-2.81706147810273,6,"Ca,Na,Nb,O,S,Si",Na18Ca4Nb8Si15(SO24)3,mp-2714006
1.6197,-2.6307839675047893,6,"Ca,Na,O,S,Si,Ti",Na8Ca3TiSi3(SO8)3,mp-2714952
1.6198000000000001,-2.624122299092091,6,"Ca,Na,Nb,O,S,Si",Na24Ca10Nb2Si9(SO8)9,mp-2715114
1.620099999999999,-1.8837816431944452,5,"Al,N,Nd,O,Si",Nd4AlSi5(NO)7,mp-686280
1.6208,-2.890333379999999,4,"Cd,Mg,O,Si",Mg30CdSiO32,mp-1039831
1.6209,-2.87259671015625,4,"Ba,Mg,O,Si",BaMg30SiO32,mp-1039822
1.6211000000000002,-2.693376000308077,6,"Na,O,P,Si,Ti,Zn",Na4TiZnSi(PO6)2,mp-2714357
1.6229,-2.638000562230393,5,"Nb,O,S,Si,Y",Y3NbSiS5O24,mp-2712943
1.6237,-1.536644070642856,3,"H,O,Si",Si2H2O3,mp-627123
1.624699999999999,-2.7476342323015883,4,"Li,O,Si,V",Li4V2(SiO4)3,mp-770256
1.625,-2.436450073748563,6,"Mg,Na,O,S,Si,Sn",Na6MgSi4Sn3(SO12)2,mp-2714471
1.6260999999999992,-2.8118641350555302,6,"Na,Nb,O,S,Sc,Si",Na6Sc4Nb4Si7S5O48,mp-2713062
1.6261,-2.518527475027505,6,"Na,Nb,O,S,Si,Sn",Na2Nb4Si7Sn4S5O48,mp-2715537
1.6277,-2.546823656200981,5,"In,Nb,O,S,Si",Nb3InSi3(SO8)3,mp-2713920
1.6296,-2.875263650946079,5,"Hf,O,S,Si,Ta",Hf2Ta2Si3(SO8)3,mp-2713757
1.63,-2.41219551850785,6,"Ge,Mg,Na,O,S,Si",Na14Mg5Si6Ge3(SO8)6,mp-2714156
1.630199999999999,-2.702764171446079,5,"La,Nb,O,S,Si",LaNb3Si3(SO8)3,mp-2713910
1.6303,-2.7639455469804552,6,"Ca,Na,O,S,Si,Ta",Na18Ca8Ta16Si21(S5O48)3,mp-2712868
1.6322,-2.778337084142856,5,"C,La,Mg,O,Si",La4MgSi4(C2O11)2,mp-1212027
1.6323999999999992,-2.723909236991751,6,"Ge,Na,O,P,Si,Y",Na4YSi2GePO12,mp-2715522
1.633299999999999,-2.53767747048098,6,"Mg,Na,O,S,Si,Sn",Na8MgSi5Sn3SO24,mp-2716197
1.633599999999999,-2.07538637510204,5,"Co,O,Sb,Si,Y",Y4Co13Si2(SbO14)2,mp-1044612
1.6339000000000001,-2.520005134411763,5,"Mg,O,Si,V,Zn",MgV2Zn2(SiO5)2,mp-2215900
1.6362,-2.44291114218733,6,"Ge,Na,O,S,Si,Zn",Na8ZnSi5Ge3SO24,mp-2715656
1.6365,-2.096205837730254,6,"Na,O,S,Si,Sn,Zn",Na10Zn6Si3Sn2(S3O16)3,mp-2714866
1.6378,-2.966588304527027,3,"C,O,Si",Si12CO24,mp-1219366
1.639,-2.381150207142856,4,"Cr,Li,O,Si",Li15Cr15SiO32,mp-861689
1.6392,-2.065230058445945,5,"Co,H,O,Si,U",U2CoSi2(H7O9)2,mp-1208188
1.6425,-2.5811801059375,4,"Li,O,Si,V",Li9V5(SiO8)2,mp-767624
1.6432000000000002,-2.843814315408457,6,"Na,Nb,O,S,Si,Zr",Na2Zr4Nb4Si7S5O48,mp-2715589
1.6435,-2.410756935174517,6,"Na,O,S,Si,Ti,Zn",Na14Ti3Zn5Si6(SO8)6,mp-2714198
1.6437,-2.783060368787879,4,"Li,O,Si,V",Li2V(SiO3)2,mp-863421
1.644299999999999,-2.577955738752052,4,"Li,Mn,O,Si",LiMnSiO4,mp-831162
1.6445999999999992,-2.630062461000001,4,"Li,O,Si,V",Li3VSiO5,mp-861563
1.6461000000000001,-2.690498502019397,6,"Na,Nb,O,S,Si,Zn",Na18Nb8Zn4Si15(SO24)3,mp-2713902
1.6471,-2.778510473606075,6,"Na,O,S,Si,Ta,Ti",NaTaTi3Si3(SO8)3,mp-2713825
1.6478000000000002,-2.498656865357143,4,"Fe,Li,O,Si",LiFeSiO4,mp-1176688
1.6491,-2.676658369260169,6,"Ca,Na,O,S,Si,Ta",Na10Ca4Ta4Si7S5O48,mp-2715882
1.6491999999999991,-2.653674339534314,5,"Al,Nb,O,S,Si",Nb3AlSi3(SO8)3,mp-2713733
1.6499000000000001,-2.686999338397436,5,"B,Li,O,Si,V",Li3VSiBO7,mp-771263
1.6502999999999992,-1.9883614752131882,6,"Na,O,S,Si,Sn,Zn",Na6Zn6SiSn2S11O48,mp-2712727
1.6505,-2.46918548780663,6,"Ca,Ge,Na,O,S,Si",Na14Ca2Si9Ge6(SO16)3,mp-2714674
1.652299999999999,-2.8038693714802543,6,"Na,O,S,Si,Ti,Y",Na5Y3TiSi3(SO8)3,mp-2713411
1.653399999999999,-2.451927216111112,3,"Mg,O,Si",Mg2Si2O5,mp-1185778
1.6536,-2.563673954123564,6,"Ca,Na,Nb,O,S,Si",Na9Ca5NbSi3(SO6)6,mp-2712768
1.653699999999999,-3.228739601388889,3,"O,Si,Ti",TiSiO4,mp-1095481
1.6537000000000002,-2.5241070531397103,6,"Ca,Ge,Na,O,S,Si",Na8CaSi5Ge3SO24,mp-2716272
1.6538,-2.4640817527485632,6,"Ca,Na,O,S,Si,Sn",Na6Ca3Si2Sn(SO6)4,mp-2712795
1.6542,-2.168879253017998,6,"Na,O,S,Si,Ti,Zn",Na4TiZn3SiS5O24,mp-2713451
1.654399999999999,-2.612642457013888,4,"Li,O,Si,V",Li7V3(SiO6)2,mp-1176994
1.6553,-2.739595861484959,6,"Mg,Na,O,S,Si,Ta",Na18Mg8Ta16Si21(S5O48)3,mp-2712984
1.655999999999999,-2.631093243556376,6,"Mg,Na,Nb,O,S,Si",Na12Mg4Nb2Si6(SO12)3,mp-2714363
1.6564,-3.1675285126666672,5,"Cu,Ho,Li,O,Si",LiHo2Cu(SiO3)4,mp-1235332
1.656899999999999,-2.506195764047618,4,"Fe,Li,O,Si",LiFeSiO4,mp-762643
1.6577000000000002,-2.23592150495094,6,"Na,O,S,Si,Sn,Zn",Na14Zn5Si6Sn3(SO8)6,mp-2714158
1.6578,-2.7364853207575752,4,"Cr,Li,O,Si",Li2Cr(SiO3)2,mp-758182
1.6584999999999992,-2.509153408717981,6,"Ge,Hf,Na,O,S,Si",Na2Hf4Si5Ge4S7O48,mp-2716152
1.659899999999999,-1.300402462065216,5,"Be,C,O,S,Si",Be3Si3C4SO12,mp-1214189