band_gap,formation_energy_per_atom,nelements,elements,formula,material_id
2.694899999999999,-2.08337115689272,5,"Br,Mn,O,Si,Te",Mn4SiTeBr2O7,mp-1193463
2.6951,-2.502700665871279,6,"In,La,Na,O,S,Si",Na10La4In4Si5S7O48,mp-2715011
2.6957999999999993,-2.669855897278175,6,"Ge,Na,O,S,Sc,Si",Na14Sc4Si9Ge4(SO16)3,mp-2714849
2.6959,-3.01341723506418,5,"Na,O,P,Si,Ti",Na7Ti4Si5PO24,mp-2714527
2.6966,-2.440368233614088,6,"Ga,Na,O,S,Si,Y",Na6Y4Ga4Si3(S3O16)3,mp-2713848
2.6971,-2.746084959284483,5,"Fe,Li,Na,O,Si",NaLi3Fe4(SiO3)8,mp-775021
2.6976,-2.475391020519397,6,"Ge,Na,O,S,Si,Sn",Na6Si5Sn2Ge2SO24,mp-2713777
2.699,-2.784424153690476,4,"Li,O,Si,V",LiVSiO4,mp-753791
2.6997,-3.068028164525126,6,"Hf,Na,Nb,O,S,Si",Na10Hf4Nb4Si11SO48,mp-2716299
2.6999,-2.924307707619639,6,"Na,O,S,Sc,Si,Ta",Na14Sc6Ta2Si9(SO16)3,mp-2715175
2.700299999999999,-2.527912713823529,4,"Co,Li,O,Si",Li6Co(SiO4)2,mp-758702
2.7003,-2.724088930877805,6,"Na,O,S,Si,Sn,Y",Na8Y2Si5Sn2SO24,mp-2715689
2.7008,-3.060393475389553,6,"Na,Nb,O,P,Si,Zr",Na2ZrNbSi2PO12,mp-2712826
2.7009,-2.6838661707575753,3,"In,O,Si",In2Si2O7,mp-2874
2.701699999999999,-2.821727428333333,4,"Co,Li,O,Si",Li2Co(Si2O5)2,mp-770682
2.7018999999999993,-2.345917017074923,6,"Hf,Na,O,S,Si,Zn",Na14Hf2Zn6Si5S7O48,mp-2715932
2.702999999999999,-2.989736063571428,4,"Ca,Co,O,Si",Ca5Co3(SiO4)4,mp-1227139
2.7038,-2.843503078867831,6,"Na,O,P,Si,Ta,Zn",Na6Ta4Zn2Si3(PO6)6,mp-2712611
2.703899999999999,-2.944836108875,5,"Al,Fe,Mg,O,Si",Mg5Al4Fe(SiO4)6,mp-694907
2.703999999999999,-2.745029790034483,5,"Fe,Li,Na,O,Si",NaLi3Fe4(SiO3)8,mp-1220801
2.7047,-2.691153815242885,6,"In,Na,O,S,Si,Ti",Na8Ti2In2Si5SO24,mp-2715561
2.7047,-3.256702779218749,4,"Ho,O,S,Si",Ho4Si2S3O7,mp-6757
2.7055,-2.735667297716091,5,"Fe,Li,Na,O,Si",Na3Li2Fe5(SiO3)10,mp-775329
2.7076000000000002,-2.806904403337849,6,"Na,O,P,Sc,Si,Sn",Na3ScSiSn(PO6)2,mp-2715501
2.7076000000000002,-2.247742056944444,3,"O,Rb,Si",Rb4SiO4,mp-768813
2.7077,-2.280801145625002,3,"Bi,O,Si",SiBi2O5,mp-28144
2.7099,-2.262714642857143,3,"Fe,O,Si",Fe2SiO4,mp-18816
2.7102999999999993,-3.013535909522374,5,"Na,O,P,Si,Ti",Na3Ti2Si2PO12,mp-2713654
2.7108,-2.750841001058909,5,"Fe,Li,Na,O,Si",NaLi7Fe8(SiO3)16,mp-775490
2.710899999999999,-2.9279917021794883,4,"Cr,Li,O,Si",LiCrSi3O8,mp-753254
2.711699999999999,-2.782252023124999,4,"Fe,Mg,O,Si",Mg3Fe2(SiO4)3,mp-6551
2.7117,-2.862845970487296,6,"Na,O,S,Si,Ta,Y",Na2YTaSi2SO12,mp-2712647
2.711999999999999,-3.1430220509672,5,"Hf,Na,Nb,O,Si",Na7Hf3Nb(SiO4)6,mp-2712835
2.7121,-2.608539904428972,6,"Na,O,S,Si,Zn,Zr",Na10Zr5Zn3Si6(SO8)6,mp-2716523
2.7136,-3.062064001578948,3,"Ca,O,Si",Ca(SiO2)6,mp-1233067
2.7138,-2.498577069186063,5,"Na,O,S,Si,Sn",Na6Si5Sn4SO24,mp-2713875
2.714,-3.175291149147727,6,"Al,Ca,Fe,H,O,Si",Ca4Al5FeSi6(HO13)2,mp-1228294
2.7157,-2.9243309909123223,6,"Na,O,S,Si,Ta,Y",Na14Y6Ta2Si9(SO16)3,mp-2714764
2.715799999999999,-2.9602370015,4,"O,Si,V,Y",Y2V3(SiO4)3,mp-1157332
2.7165,-1.237551123508064,6,"Co,F,H,N,O,Si",CoSiH15N6(OF3)2,mp-1226454
2.716699999999999,-3.930646094242425,5,"F,O,Si,Ti,Y",Y4TiSi2(O3F2)3,mp-554376
2.7167,-2.412485842818303,5,"C,Cr,Na,O,Si",Na3CrSiCO7,mp-771013
2.7169,-2.804960930857543,6,"Na,O,P,Sc,Si,Sn",Na5Sc2SiSn2P5O24,mp-2715828
2.717,-2.707390299019397,6,"Ge,Na,O,S,Si,Ti",Na6Ti2Si5Ge2SO24,mp-2713937
2.7175000000000002,-2.467616530520834,4,"Co,Li,O,Si",Li2CoSiO4,mp-757664
2.7178,-2.853310261044314,6,"Na,O,S,Si,Y,Zr",Na4Y2Zr2Si3(SO8)3,mp-2713236
2.718099999999999,-2.682419750781249,4,"Mg,O,Si,Sn",Mg14SiSnO16,mp-1034271
2.7187,-2.704693030874998,4,"Co,O,Si,Y",Y2Co3(SiO4)3,mp-1157336
2.7187,-2.569731109777778,3,"Fe,O,Si",FeSiO3,mp-650392
2.7192,-2.785963346923076,4,"Cr,Li,O,Si",Li3CrSi2O7,mp-758792
2.7202,-2.385883067278175,6,"Ga,Mg,Na,O,S,Si",Na14Mg4Ga4Si5S7O48,mp-2716068
2.7204,-2.9212319783841,6,"Na,O,S,Si,Ta,Y",Na10Y4Ta4Si9(SO16)3,mp-2714110
2.7206,-2.245565171388888,3,"O,Rb,Si",Rb4SiO4,mp-755776
2.720799999999999,-3.256707328906248,4,"Er,O,S,Si",Er4Si2S3O7,mp-6316
2.7213000000000003,-2.483749770119047,4,"Fe,Li,O,Si",LiFeSiO4,mp-758614
2.723,-2.99815898509961,6,"La,Na,O,P,Si,Ta",Na3La2Ta2SiP5O24,mp-2712910
2.724,-2.494524919191177,5,"O,S,Si,Zn,Zr",Zr3ZnSiS5O24,mp-2712995
2.7254,-2.751215939713793,5,"Fe,Li,Na,O,Si",NaLi9Fe10(SiO3)20,mp-1101479
2.7255000000000003,-2.500517296234949,6,"Na,O,S,Si,Y,Zn",Na8Y2Zn2Si3(SO8)3,mp-2715185
2.726199999999999,-3.119839093671773,4,"Na,O,Si,Ti",Na2TiSi4O11,mp-556283
2.7262999999999993,-2.749929439482391,6,"Na,Nb,O,S,Si,Sn",Na10Nb4Si11Sn4SO48,mp-2716553
2.7262999999999993,-2.861972202465107,6,"Al,Na,O,S,Si,Ti",Na8Ti2Al2Si5SO24,mp-2715665
2.7269,-2.941768770604185,5,"In,Na,Nb,O,Si",Na10Nb7In(SiO4)12,mp-2713494
2.7270000000000003,-2.739003427025126,6,"Ge,Hf,Na,O,S,Si",Na10Hf4Si9Ge4(SO16)3,mp-2714183
2.7286,-2.49437340084117,5,"Ca,H,Mn,O,Si",Ca2Mn7Si10H12O35,mp-1228000
2.7301,-2.683296297886825,4,"Li,Mn,O,Si",Li2Mn2Si2O7,mp-772591
2.731099999999999,-3.021870058897373,5,"Na,O,P,Si,Ti",Na3Ti2Si2PO12,mp-2713692
2.7318,-2.478286066547618,4,"Fe,Li,O,Si",LiFeSiO4,mp-758968
2.7323,-2.59949562609606,6,"In,La,Na,O,S,Si",Na4LaInSi2SO12,mp-2714484
2.7324,-3.259998187604166,5,"Ca,Ge,O,Si,Ti",Ca2Ti2SiGeO10,mp-1227370
2.7333,-2.4719574888095233,4,"Fe,Li,O,Si",LiFeSiO4,mp-757540
2.733499999999999,-2.60404380282063,6,"Ge,Na,O,S,Si,Ti",Na2TiSi2GeSO12,mp-2712667
2.736699999999999,-2.68881581625,4,"Ba,Mg,O,Si",BaMg14SiO16,mp-1034729
2.7369,-3.075079170999909,6,"Na,O,P,Si,Ta,Ti",NaTaTiSi(PO6)2,mp-2715682
2.7377000000000002,-2.161385807456897,6,"In,Na,O,S,Si,Zn",Na3ZnInSi(SO6)2,mp-2712629
2.738,-2.7378567047356333,5,"Fe,Li,Na,O,Si",NaLiFe2(SiO3)4,mp-850191
2.7423,-2.576044497396061,6,"Ga,Na,O,S,Si,Ta",Na14Ta2Ga6Si9(SO16)3,mp-2714846
2.743,-2.949823157367006,5,"Ga,Na,Nb,O,Si",Na10Nb7Ga(SiO4)12,mp-2713337
2.743999999999999,-3.007276597056218,6,"Na,Nb,O,P,Si,Ti",Na2TiNbSi2PO12,mp-2713031
2.7449,-2.729088724957471,5,"Fe,Li,Na,O,Si",Na9LiFe10(SiO3)20,mp-775304
2.7453000000000003,-2.8911314508999992,5,"Ca,H,O,Si,Zr",CaZrSi6H2O15,mp-1214069
2.7461,-2.713278504127555,5,"La,Na,O,S,Si",Na2La4SiS5O24,mp-2714332
2.747499999999999,-3.073014353105707,6,"Na,O,P,Si,Ti,Zr",Na3ZrTiSi2PO12,mp-2713585
2.7475,-2.745314018284483,5,"Fe,Li,Na,O,Si",NaLi3Fe4(SiO3)8,mp-1220832
2.7475,-2.748439889686063,6,"Ge,Na,O,S,Si,Zr",Na6Zr2Si5Ge2SO24,mp-2713899
2.748,-2.788471922218652,6,"Ge,Na,O,P,Si,Ti",Na7Ti2Si5Ge2PO24,mp-2714452
2.7482,-2.8438057525,2,"O,Si",SiO2,mp-556376
2.748999999999999,-3.253322009843751,4,"O,S,Si,Tm",Tm4Si2S3O7,mp-16591
2.7493,-2.815575922856766,6,"Na,O,S,Si,Ta,Zn",Na42Ta16Zn8Si33(SO48)3,mp-2714406
2.7497,-2.960574597581897,5,"Al,Na,Nb,O,Si",Na6Nb3Al(SiO4)6,mp-2715520
2.7502,-2.828154589645835,5,"Fe,Li,O,Sc,Si",Li8ScFe7(SiO3)16,mp-775203
2.7503,-3.006823506202476,5,"Na,Nb,O,Si,Y",Na10YNb7(SiO4)12,mp-2713378
2.7504,-1.8519002818821821,6,"F,Li,N,Nd,O,Si",Li14Nd5Si11N19O7F2,mp-1223420
2.750499999999999,-2.531273301606171,4,"Cd,Na,O,Si",Na4Cd2Si3O10,mp-556413
2.750499999999999,-0.398125804738637,5,"C,H,K,O,Si",KSi4H27(C3O)3,mp-1197910
2.7509,-3.071604253605707,6,"Na,O,P,Si,Ti,Zr",Na3ZrTiSi2PO12,mp-2713621
2.7511,-2.242628603777263,6,"Ga,In,Na,O,S,Si",Na10In4Ga4Si5S7O48,mp-2715129
2.7514000000000003,-2.42775149683481,6,"Mg,Na,O,S,Si,Zr",Na6Mg6Zr2SiS11O48,mp-2712794
2.7518000000000002,-2.96947141625,5,"Al,Fe,Mg,O,Si",Mg11AlFeSi11O36,mp-695082
2.7521999999999993,-2.755912632583333,4,"Fe,Li,O,Si",LiFe(SiO3)2,mp-19061
2.7537000000000003,-2.44712343857143,3,"O,Si,Zn",Zn2SiO4,mp-3789
2.7537000000000003,-2.299148701718291,6,"Na,O,S,Si,Ta,Zn",Na6Ta2Zn4Si3(SO6)6,mp-2713639
2.7549,-3.010760072420426,5,"Na,Nb,O,Sc,Si",Na10ScNb7(SiO4)12,mp-2713359
2.7554,-2.496512667083333,4,"Co,Li,O,Si",Li2CoSiO4,mp-760516
2.7557,-2.9583784660289503,6,"Mg,Na,O,P,Si,Ta",Na21Mg4Ta8Si15(PO24)3,mp-2714368
2.756999999999999,-2.769704256444842,6,"Na,O,S,Si,Sn,Ti",Na14Ti4Si11Sn4SO48,mp-2714336
2.7576,-2.4764042843557172,6,"In,Na,O,S,Si,Y",Na2YInSi(SO6)2,mp-2713562
2.7584,-2.852107721583333,5,"Fe,Li,O,Sc,Si",Li6ScFe5(SiO3)12,mp-766133
2.7588,-2.846033119197,6,"Na,Nb,O,S,Si,Ti",NaTiNbSi2SO12,mp-2715810
2.7609,-2.571285841041666,4,"Bi,Li,O,Si",Li5Si2BiO8,mp-859129
2.7611,-2.295800008214286,3,"Fe,O,Si",Fe2SiO4,mp-1192494
2.761199999999999,-2.385724366675893,6,"In,Na,O,S,Si,Ta",Na4TaIn3Si3(SO8)3,mp-2713617
2.7617000000000003,-2.874850431621183,6,"Mg,Na,O,P,Si,Ta",Na3MgTaSi(PO6)2,mp-2715476
2.763299999999999,-2.201037637187501,3,"Bi,O,Si",SiBi2O5,mp-769310
2.7634,-2.935426703039217,4,"Cr,Li,O,Si",Li2Cr(Si2O5)2,mp-758640
2.763699999999999,-3.279390684999998,4,"Mg,O,Si,Zr",MgZrSi2O7,mp-1221993
2.764099999999999,-2.958708017288883,6,"Mg,Na,O,P,Si,Ta",Na6Mg2Ta4Si3(PO6)6,mp-2712562
2.7645,-2.492196347380953,3,"Be,O,Si",Be2SiO4,mp-1182753
2.764699999999999,-2.292632581664456,5,"C,Fe,Na,O,Si",Na3FeSiCO7,mp-771204
2.765,-2.729963453670499,5,"Fe,Li,Na,O,Si",Na5LiFe6(SiO3)12,mp-766215
2.765399999999999,-2.900509585833333,5,"Fe,Li,O,Sc,Si",Li4ScFe3(SiO3)8,mp-766037
2.765799999999999,-1.561949702051281,6,"Al,Ba,N,O,Si,Sm",BaSm5Al3Si9N20O,mp-684810
2.7659000000000002,-2.7282060509628723,6,"Ge,Na,Nb,O,P,Si",NaNbSiGe(PO6)2,mp-2715738
2.766499999999999,-2.689681438522383,6,"Ge,Hf,Na,O,S,Si",Na2HfSi2GeSO12,mp-2712698
2.7666999999999993,-2.508809583,3,"Cd,O,Si",CdSiO3,mp-776023
2.7672,-3.033981342671183,6,"Na,Nb,O,P,Si,Y",Na6Y3NbSi2(PO6)4,mp-2715449
2.767399999999999,-2.7315718846867822,5,"Fe,Li,Na,O,Si",Na3LiFe4(SiO3)8,mp-1221254
2.7674000000000003,-2.747250930488285,6,"Ge,Na,Nb,O,P,Si",Na3Nb2Si3Ge2(PO8)3,mp-2712843
2.7681999999999993,-2.7554032543333333,4,"Fe,Li,O,Si",LiFe(SiO3)2,mp-757449
2.7683,-2.341699846998564,6,"Ga,Mg,Na,O,S,Si",Na3MgGaSi(SO6)2,mp-2712641
2.7685,-3.006093775921182,6,"La,Na,Nb,O,P,Si",Na6La3NbSi2(PO6)4,mp-2715296
2.7698,-0.27488769384751705,5,"C,H,O,Si,Zn",Zn3Si14H90(C15O2)2,mp-1200390
2.770299999999999,-2.671822164949713,4,"Li,Mn,O,Si",Li2MnSiO4,mp-752844
2.7706,-2.346070211855717,5,"Ge,Na,O,S,Si",Na2Si2Ge2SO12,mp-2712759
2.7718,-2.536913665516443,6,"Al,Na,O,S,Si,Y",Na2Y2Al2SiS5O24,mp-2714547
2.7720000000000002,-2.699693900113541,5,"Na,Nb,O,Si,Sn",Na7NbSi6(SnO8)3,mp-2712879
2.7720000000000002,-2.7795792590223742,6,"Ge,Na,O,P,Si,Ti",Na3TiSi2GePO12,mp-2715519
2.7721,-2.8043356299360633,6,"Hf,Na,O,S,Si,Sn",Na6Hf2Si5Sn2SO24,mp-2713969
2.7723,-3.1861268565176672,5,"Al,Ca,Cs,O,Si",Cs2CaAl4(SiO4)4,mp-677292
2.7729,-2.67340329913642,6,"Na,O,S,Si,Sn,Zr",Na2ZrSi2SnSO12,mp-2712675
2.7733,-2.760070474999999,2,"O,Si",SiO2,mp-561488
2.7742999999999993,-2.875197117813219,6,"Hf,Na,O,S,Si,Zr",Na2Hf4Zr4Si5S7O48,mp-2716265
2.7758000000000003,-2.577487781124999,3,"Fe,O,Si",FeSiO3,mp-21939
2.7784,-3.468271934925,6,"Al,Ca,O,Si,Ta,Ti",Ca10TaTi8Al(SiO5)10,mp-1173088
2.7784999999999993,-3.006544282316793,5,"Ca,Na,O,Si,Ta",Na7CaTa3(SiO4)6,mp-2712891
2.7792000000000003,-2.8666736232933383,6,"Mg,Na,O,P,Si,Ta",Na4MgTaSi2PO12,mp-2715694
2.7804,-2.686916581231885,4,"Fe,Li,O,Si",Li4Fe2Si4O13,mp-759501
2.7804,-3.023167193680614,6,"Na,O,S,Si,Ti,Zr",Na14Zr4Ti4Si11SO48,mp-2714431
2.7807,-2.977301872939519,6,"Ca,Na,O,P,Si,Ta",Na21Ca4Ta8Si15(PO24)3,mp-2714498
2.7812,-2.846146922633096,5,"Na,O,Si,Ta,Zn",Na12Ta4Zn2(SiO4)9,mp-2716505
2.7817,-2.861775249311451,6,"La,Na,O,S,Si,Zr",Na10La4Zr4Si7S5O48,mp-2716065
2.781799999999999,-1.4946958492982452,5,"Li,N,O,Si,Sr",Sr4Li2Si4N8O,mp-1020592
2.7819000000000003,-2.78437559211993,6,"La,Na,O,P,Si,Sn",Na7La2Si3Sn2(PO8)3,mp-2714910
2.782,-2.799395645189039,6,"Na,O,P,Si,Sn,Ti",Na3TiSi2SnPO12,mp-2713590
2.7821,-3.010031847123564,5,"Na,Nb,O,Si,Ti",Na3TiNb(SiO4)3,mp-2715237
2.7822,-3.101441184413774,6,"Hf,Na,O,P,Si,Ti",Na7Hf2Ti2Si5PO24,mp-2714479
2.7859,-2.490743542083333,4,"Fe,Li,O,Si",Li2FeSiO4,mp-757426
2.787,-2.757273236547618,4,"Li,O,Si,V",LiVSiO4,mp-766024
2.7874,-2.74881651046875,4,"Co,O,Si,Zn",ZnCo(Si2O5)2,mp-1043509
2.7880000000000003,-2.861777346399836,4,"Li,Mn,O,Si",Li2MnSi3O8,mp-753994
2.7897,-2.519825879761905,4,"Al,O,Si,Tl",AlTlSiO4,mp-669421
2.789999999999999,-3.145299489401941,4,"Ca,Mn,O,Si",CaMn(Si2O5)2,mp-1043634
2.7910999999999992,-2.806518933421182,6,"Na,O,P,Sc,Si,Sn",Na3ScSiSn(PO6)2,mp-2715514
2.7912,-2.533810905149363,6,"Ge,Na,O,P,Si,Sn",Na5Si3Sn2Ge2(PO8)3,mp-2714074
2.791699999999999,-2.931452094366341,6,"Al,Na,O,S,Si,Ta",Na6Ta6Al2Si9(SO16)3,mp-2712979
2.7923,-3.086092286333053,5,"Na,Nb,O,Si,Zr",Na7Zr3Nb(SiO4)6,mp-2713025
2.7927,-2.7472908507142852,4,"O,P,Si,V",VSiP2O9,mp-18882
2.792799999999999,-2.940328512782567,6,"Na,O,S,Sc,Si,Ti",Na8Sc2Ti2Si5SO24,mp-2715758
2.793199999999999,-3.036101766123722,6,"Na,O,P,Si,Ta,Y",Na5Y2Ta2Si3(PO8)3,mp-2714091
2.7934,-2.536930102847222,5,"Ca,F,H,O,Si",Ca5Si2HO9F,mp-1251187
2.7942,-3.286606347055556,5,"Ba,K,O,Si,Ta",K6Ba3Ta12(Si2O13)4,mp-677080
2.7953,-2.913438016718554,6,"Mg,Na,O,S,Si,Ta",Na42Mg8Ta16Si33(SO48)3,mp-2714379
2.7956000000000003,-2.976744984366341,6,"Na,O,S,Sc,Si,Ta",Na6Sc2Ta6Si9(SO16)3,mp-2712848
2.7958,-2.994471853261262,6,"Ca,Na,O,P,Si,Ta",Na9Ca2Ta4Si6(PO12)3,mp-2715266
2.7958,-2.322547988589901,4,"Al,Na,O,Si",NaAlSiO4,mp-649722
2.7959,-2.61106588572766,6,"B,H,Mn,O,Si,Sn",Mn4Si4SnB2(HO9)2,mp-726800
2.7961,-2.9876240383333332,5,"Fe,Li,O,Sc,Si",Li5Sc2Fe3(SiO3)10,mp-775172
2.7963,-2.882348795019396,5,"Ga,Na,Nb,O,Si",Na6Nb3Ga(SiO4)6,mp-2715251
2.7965,-3.111022910355707,6,"Hf,Na,O,P,Si,Ti",Na3HfTiSi2PO12,mp-2715319
2.7971,-3.6186688118181802,3,"Gd,O,Si",Gd2Si2O7,mp-542469
2.7976,-2.770175205192307,4,"Cr,Li,O,Si",Li3CrSi2O7,mp-758247
2.7977,-3.037076059125,5,"Al,Cd,O,Rb,Si",RbAl3Cd(SiO4)3,mp-1250508
2.7977,-2.560811417083333,4,"Cr,Li,O,Si",Li2CrSiO4,mp-758490
2.7982,-3.067581303192809,6,"Hf,Na,O,S,Si,Ti",Na14Hf4Ti4Si11SO48,mp-2714456
2.7986,-2.8929134491939292,5,"Ge,Na,Nb,O,Si",Na5Nb3Si6GeO24,mp-2713174
2.7987,-2.504611972708334,4,"Co,Li,O,Si",Li2CoSiO4,mp-758638
2.798899999999999,-2.85314203982069,5,"Al,N,Na,O,Si",Na4Al3Si3NO14,mp-1173714
2.7989,-2.695101835520662,6,"Ca,Na,O,S,Si,Y",Na8Ca2Y2Si3(SO8)3,mp-2715101
2.7997,-2.506738275208334,4,"Co,Li,O,Si",Li2CoSiO4,mp-753828
2.8003,-2.973440981573548,6,"Na,O,S,Si,Ta,Y",Na6Y2Ta6Si9(SO16)3,mp-2713097
2.8003,-2.900402700458335,5,"Fe,Li,O,Sc,Si",Li4ScFe3(SiO3)8,mp-1222629
2.8008,-2.983293070869058,6,"La,Na,O,P,Si,Ta",Na7La2Ta2Si5PO24,mp-2714396
2.8016,-3.10418567819657,6,"Hf,Na,Nb,O,P,Si",Na2HfNbSi2PO12,mp-2714938
2.8017000000000003,-2.8122985960239992,6,"Na,O,S,Sc,Si,Zr",Na6Zr4Sc4Si5S7O48,mp-2715894
2.8017000000000003,-2.956905127844214,6,"Na,O,S,Si,Ta,Zn",Na30Ta20Zn4Si33(SO48)3,mp-2716395
2.8022,-2.849782564163638,6,"Ga,Na,O,S,Si,Ta",Na6Ta6Ga2Si9(SO16)3,mp-2713120
2.8025,-2.9356283747943572,6,"Na,O,S,Sc,Si,Ta",Na10Sc4Ta4Si9(SO16)3,mp-2714150
2.8032,-3.129470375909091,4,"Ba,O,Si,V",BaVSi2O7,mp-1190381
2.8033,-2.666704549615384,4,"Fe,Li,O,Si",Li3FeSi2O7,mp-759383
2.8042,-2.4783618747619043,4,"Fe,Li,O,Si",LiFeSiO4,mp-766458
2.804599999999999,-2.8744170074856332,5,"Mn,Na,O,Si,Ti",Na6TiMn(SiO3)6,mp-40374
2.8053,-2.833601998024535,6,"Na,O,P,Si,Ta,Zn",Na9Ta8Zn4Si3(P5O24)3,mp-2712823
2.8055000000000003,-2.480237166904761,4,"Fe,Li,O,Si",LiFeSiO4,mp-1192570
2.806000000000001,-2.790532731875,4,"Mg,O,Si,Zn",Mg14ZnSiO16,mp-1034860
2.806499999999999,-3.011356401540231,5,"Na,Nb,O,Si,Ti",Na3TiNb(SiO4)3,mp-2715478
2.8068,-3.40915579367615,6,"Ca,Na,O,Si,Ta,Ti",NaCa4TaTi4(SiO5)5,mp-694049
2.807,-3.576534094401042,4,"B,Gd,O,Si",Gd3Si2BO10,mp-1198316
2.8076,-2.992573208129801,5,"Mg,Na,O,Si,Ta",Na7MgTa3(SiO4)6,mp-2712875
2.807899999999999,-2.495667078645834,4,"Co,Li,O,Si",Li2CoSiO4,mp-764957
2.8079,-2.613004692683203,6,"Ca,Na,O,S,Si,Ta",Na6Ca4Ta2Si3(SO6)6,mp-2713671
2.8079,-2.965876960974138,5,"K,Mn,Na,O,Si",KNaMn(Si2O5)2,mp-554248
2.8079,-2.53744202090625,4,"K,O,Sb,Si",KSiSbO5,mp-14721
2.8081,-3.033134775636237,6,"Na,Nb,O,S,Si,Zr",Na10Zr4Nb4Si11SO48,mp-2716306
2.8086,-2.781061818780333,6,"Ca,Hf,Na,O,S,Si",Na2CaHf3Si2(SO6)4,mp-2712798
2.8092,-2.5205931132437183,5,"Al,H,Mn,O,Si",Mn9Al2Si8(HO4)8,mp-707875
2.8098,-2.968662731877278,6,"Na,O,P,Si,Ta,Zn",Na3Ta10Zn2Si3(P5O24)3,mp-2715602
2.8104,-1.886481669038461,5,"Cr,F,H,O,Si",CrSiH12(OF)6,mp-1255651
2.8109,-2.775450181933124,4,"Li,Mn,O,Si",Li2Mn(SiO3)2,mp-757250
2.8114,-3.011138610860596,5,"Na,Nb,O,Si,Ti",Na5TiNb3(SiO4)6,mp-2713212
2.811400000000001,-3.460373064687498,4,"Er,O,S,Si",Er2SiSO4,mp-555990
2.811499999999999,-2.395569417499999,3,"O,Si,Zn",Zn2SiO4,mp-1020636
2.812499999999999,-2.739682485833333,4,"Cr,Li,O,Si",LiCrSiO4,mp-758241
2.812999999999999,-3.096523987167489,5,"Hf,Na,O,Si,Ti",Na4HfTi(SiO4)3,mp-2716526
2.8133,-2.40886765689692,5,"Ge,Na,O,S,Si",Na10Si9Ge8(SO16)3,mp-2714137
2.8142,-2.827391134132106,6,"Na,O,S,Si,Y,Zr",Na6Y4Zr4Si5S7O48,mp-2715925
2.8146,-2.752656774071148,6,"Ge,La,Na,O,P,Si",Na7La2Si3Ge2(PO8)3,mp-2714797
2.8158000000000003,-2.4809136776190472,4,"Fe,Li,O,Si",LiFeSiO4,mp-849257
2.816099999999999,-2.77587362942464,6,"Na,Nb,O,P,Si,Sn",Na2NbSi2SnPO12,mp-2715108
2.816699999999999,-2.7703193511040523,5,"Ca,Mn,O,Pb,Si",Ca5MnSi9(Pb3O11)3,mp-651786
2.8169999999999993,-2.527420038005981,6,"Ca,Na,O,S,Si,Zr",Na6Ca6Zr2SiS11O48,mp-2712716
2.8173999999999992,-2.7189317456793933,6,"Ga,Na,O,S,Si,Ti",Na8Ti2Ga2Si5SO24,mp-2716256
2.8185000000000002,-2.807471845642545,6,"Na,O,P,Sc,Si,Sn",Na4ScSi2SnPO12,mp-2716168
2.8188999999999993,-2.489758223333333,4,"Co,Li,O,Si",Li2CoSiO4,mp-758473
2.819,-0.289147596361788,5,"C,H,O,Si,Zn",Zn3Si12H78(C13O2)2,mp-1203427
2.8207999999999993,-2.512044828125,4,"Fe,Mg,O,Si",Mg6FeSiO8,mp-1032523
2.8211,-2.626379620609037,6,"Ca,Hf,Na,O,S,Si",Na2Ca2Hf2SiS5O24,mp-2714353
2.8213,-2.569005845678481,6,"Ge,Na,Nb,O,S,Si",NaNbSi2GeSO12,mp-2715734
2.821499999999999,-2.501421636385697,4,"Ag,Cs,O,Si",Cs5Si3AgO9,mp-554842
2.8225,-2.8045003065275953,6,"Na,O,P,Si,Sn,Ti",Na7Ti2Si5Sn2PO24,mp-2714345
2.8227,-2.203128711235632,3,"Cs,O,Si",Cs4SiO4,mp-771255
2.823299999999999,-2.381063821156609,5,"Ca,Ga,Na,O,Si",NaCaGaSi2O7,mp-1262161
2.8235,-2.793463146929393,5,"Ge,Na,O,Si,Ti",Na4TiSi3GeO12,mp-2716461
2.823699999999999,-2.984413781984375,4,"Ho,K,O,Si",K3Ho(SiO3)3,mp-1182785
2.8243,-2.5885420883688752,6,"Ga,Na,O,S,Si,Zr",Na4Zr2Ga2Si3(SO8)3,mp-2713272
2.824899999999999,-2.874237976666667,4,"Al,O,Pb,Si",Al2Si2Pb2O9,mp-561246
2.8257,-2.397159457537946,6,"Al,In,Na,O,S,Si",Na10Al4In4Si5S7O48,mp-2715196
2.8258,-2.580890606215687,5,"Al,O,S,Si,Ta",TaAlSi(SO6)2,mp-2713135
2.8263,-2.6258979295969462,6,"Ga,Hf,Na,O,S,Si",Na4Hf2Ga2Si3(SO8)3,mp-2713610
2.8265000000000002,-3.113218985230706,6,"Hf,Na,O,P,Si,Ti",Na3HfTiSi2PO12,mp-2715502
2.8274,-2.532878396630572,6,"Mg,Na,O,S,Si,Ta",Na6Mg4Ta2Si3(SO6)6,mp-2713242
2.8276,-2.900308152660289,6,"La,Na,O,S,Si,Ta",Na14La6Ta2Si9(SO16)3,mp-2714980
2.8293,-2.114124431241589,5,"Na,O,S,Si,Zn",Na14Zn8Si3(S3O16)3,mp-2714593
2.8319,-3.112735602793104,4,"Ca,Mn,O,Si",CaMn(SiO3)2,mp-19446
2.8321,-2.764831447738096,5,"Be,Ca,Co,O,Si",CaBe3Co2(SiO4)3,mp-1048770
2.8327,-2.7595260022388,6,"Hf,Na,O,S,Si,Sn",Na10Hf4Si9Sn4(SO16)3,mp-2714160
2.8327,-2.931991818303921,6,"Ca,Na,O,S,Si,Ta",Na42Ca8Ta16Si33(SO48)3,mp-2714422
2.832799999999999,-2.653097449352049,6,"Al,Na,O,S,Si,Ta",Na10TaAl7Si6(SO8)6,mp-2713445
2.8329,-2.683946054239558,6,"Ca,Na,O,S,Si,Zr",Na14Ca5Zr3Si6(SO8)6,mp-2714130
2.8337,-2.46721943485273,5,"Ge,Na,O,S,Si",Na6Si5Ge4SO24,mp-2713951
2.8366,-2.727875745138888,4,"Li,O,Si,W",Li2Si2WO7,mp-753700
2.8369,-2.012319870798773,6,"In,Na,O,S,Si,Zn",Na6Zn4In4SiS11O48,mp-2713591
2.836999999999999,-2.4862078490476183,4,"Fe,Li,O,Si",LiFeSiO4,mp-766529
2.8385,-2.790021804404761,4,"Fe,Li,O,Si",Li2FeSi3O8,mp-767149
2.838799999999999,-3.132123340681818,5,"Ba,O,Si,Sr,V",BaSr7V8(Si2O7)8,mp-778499
2.8388,-2.711902746274631,6,"Ge,Na,O,S,Sc,Si",Na8Sc2Si5Ge2SO24,mp-2716244
2.839,-2.806133306602355,6,"Ge,Na,O,P,Si,Zr",Na5Zr2Si3Ge2(PO8)3,mp-2714102
2.8399,-3.015865174151616,4,"Na,O,Si,Ti",Na4Ti2(SiO4)3,mp-2716309
2.8406000000000002,-3.002211196831896,5,"Na,Nb,O,Sc,Si",Na6ScNb3(SiO4)6,mp-2715411
2.8409,-2.698673658478117,6,"Ge,Na,O,S,Si,Zr",Na10Zr4Si9Ge4(SO16)3,mp-2714211
2.8409,-2.850105412037421,6,"Ge,Hf,Na,O,P,Si",Na2HfSiGe(PO6)2,mp-2712719
2.841599999999999,-3.427623457517241,6,"Ca,Na,Nb,O,Si,Ti",NaCa9Ti9Nb(SiO5)10,mp-534850
2.842,-2.299604785520046,6,"Ga,Na,O,S,Si,Zn",Na7ZnGa3Si3(SO8)3,mp-2714238