band_gap,formation_energy_per_atom,nelements,elements,formula,material_id
1.218,-2.579653332243589,5,"B,Cr,Li,O,Si",Li3CrSiBO7,mp-773206
1.218,-2.2849749692460692,6,"Ga,Na,O,S,Si,Sn",Na4Ga2Si3Sn2(SO8)3,mp-2713593
1.2182,-2.211029348618296,5,"Ge,Na,O,S,Si",Na2Si3Ge4(SO8)3,mp-2713185
1.2198,-2.473268420357443,6,"Ca,Na,O,S,Si,Sn",Na14Ca5Si6Sn3(SO8)6,mp-2714093
1.221299999999999,-2.6051220532944352,6,"Ca,Na,O,S,Si,Ti",Na14Ca6Ti2Si5S7O48,mp-2715906
1.2246000000000001,-2.660268867783672,6,"Mg,Na,O,S,Si,Ti",Na10Mg3Ti5Si6(SO8)6,mp-2716341
1.2253,-2.334177972131963,6,"Ge,Mg,Na,O,S,Si",Na10Mg6Si3Ge2(S3O16)3,mp-2714861
1.2255,-2.911218966956522,4,"Ca,Co,O,Si",Ca3Co2(Si2O7)2,mp-1249267
1.2277,-2.476246555033008,6,"Ge,Na,O,S,Si,Y",Na6Y4Si5Ge4S7O48,mp-2715839
1.2288000000000001,-2.6509678801227423,6,"Na,O,S,Sc,Si,Ti",Na2Sc4Ti4Si3(S3O16)3,mp-2716440
1.2296,-2.127000334285713,4,"Co,Li,O,Si",LiCoSiO4,mp-759364
1.230699999999999,-2.192141242969232,6,"Na,O,S,Si,Sn,Zn",Na14Zn6Si5Sn2S7O48,mp-2716020
1.2311,-2.685606251717981,6,"La,Na,Nb,O,S,Si",Na2La4Nb4Si5S7O48,mp-2716127
1.2321,-2.113796303367346,5,"Al,O,Sb,Si,Sn",Al4Si2Sn13(SbO14)2,mp-1044109
1.2321,-2.376402755123417,6,"Ca,Ge,Na,O,S,Si",Na10Ca2Si7Ge6S5O48,mp-2715912
1.2322,-1.734427364285715,3,"Hg,O,Si",Si(HgO2)2,mp-779704
1.2327,-2.406905282670362,6,"Mg,Na,O,S,Si,Ti",Na2Mg4Ti4SiS11O48,mp-2714088
1.233399999999999,-2.32737861125,3,"O,Si,Sn",SiSnO4,mp-1142770
1.233699999999999,-2.224053159423076,5,"C,Co,Li,O,Si",Li3CoSiCO7,mp-770659
1.2348,-3.017334845064103,4,"Li,O,Si,V",Li2VSi7O16,mp-757841
1.2349,-2.659813922313219,6,"Na,O,S,Si,Ti,Y",Na2Y4Ti4Si3(S3O16)3,mp-2716308
1.235,-2.61198805040463,6,"Ca,Na,Nb,O,S,Si",Na9Ca5Nb7Si9(SO8)9,mp-2714714
1.235,-2.481692340833333,2,"O,Si",SiO2,mp-555823
1.2381,-2.478548651973298,6,"Ca,Ge,Na,O,S,Si",Na14Ca4Si7Ge4S5O48,mp-2715762
1.2392,-2.830111135470147,6,"Na,O,S,Si,Ti,Zr",Na2Zr2Ti2Si3(SO8)3,mp-2713397
1.2402,-2.595968717333335,4,"Co,Li,O,Si",LiCo(SiO3)2,mp-753876
1.240399999999999,-2.618405974473685,4,"Co,Mg,O,Si",MgCo2(SiO3)4,mp-2230436
1.2406,-2.503228015937329,6,"Ca,Na,O,S,Si,Sn",Na4CaSi2SnSO12,mp-2714382
1.2407,-2.325060171369049,4,"Co,Li,O,Si",LiCoSiO4,mp-758767
1.241199999999999,-2.311794205505981,5,"Na,O,S,Si,Sn",Na6Si7Sn8S5O48,mp-2712888
1.242499999999999,-2.260701451361837,6,"Mg,Na,O,S,Si,Sn",Na6Mg4Si3Sn4(S3O16)3,mp-2713833
1.2425,-2.305025752812498,3,"Fe,O,Si",Fe9Si6O25,mp-818295
1.2426,-3.07078258228161,7,"F,Mn,Na,O,Si,Ti,Zr",Na8Zr3Ti3Mn2Si8(O17F)2,mp-1220956
1.2427000000000001,-2.309595556546468,6,"Na,O,S,Si,Ti,Zn",Na14Ti2Zn6Si5S7O48,mp-2715996
1.245,-2.527813934033672,6,"Mg,Na,Nb,O,S,Si",Na30Mg16Nb8Si15(S7O48)3,mp-2715198
1.245399999999999,-2.551640310122742,6,"Mg,Na,O,S,Si,Ti",Na2Mg2Ti6Si3(S3O16)3,mp-2716402
1.2476,-2.372785094932267,6,"Na,O,S,Sc,Si,Sn",Na2Sc4Si3Sn4(S3O16)3,mp-2716562
1.2486,-2.517288048294222,6,"Ca,Na,O,S,Si,Ti",Na2Ca2Ti2SiS5O24,mp-2714520
1.2493,-2.6262040602221752,6,"Ca,Na,O,S,Si,Ta",Na18Ca8Ta4Si9(SO8)9,mp-2716141
1.249699999999999,-2.496247901003695,6,"Na,O,S,Si,Sn,Zr",Na2Zr4Si5Sn4S7O48,mp-2716232
1.2535,-2.2785337342201473,6,"Na,O,S,Si,Ti,Zn",Na2Ti2Zn2SiS5O24,mp-2714612
1.253699999999999,-2.851132283906403,4,"Mg,Mn,O,Si",MgMn4(Si4O11)2,mp-1233949
1.2545,-2.539007766950339,6,"Na,O,S,Si,Ti,Zn",Na10Ti5Zn3Si6(SO8)6,mp-2713180
1.255,-2.182274909954716,6,"Na,O,S,Si,Ta,Zn",Na6Ta4Zn8Si3(S5O24)3,mp-2715702
1.255,-2.375581695793104,4,"Mn,O,Si,Zn",Mn2Zn3(SiO4)3,mp-1264019
1.2574,-2.327634088123563,6,"Ge,Na,O,S,Si,Zn",Na6ZnSi4Ge3(SO12)2,mp-2714516
1.257599999999999,-1.7631103517857132,3,"H,O,Si",Si2H2O3,mp-1248872
1.2587,-2.587102413432267,6,"Al,Na,Nb,O,S,Si",Na2Nb4Al4Si5S7O48,mp-2716187
1.259999999999999,-2.73049583278941,6,"Ca,Na,Nb,O,S,Si",Na6Ca4Nb20Si21(S5O48)3,mp-2715662
1.2601,-3.357529777179488,6,"B,Ca,Ce,O,Si,Ti",Ca4Ce2TiSi4(BO6)4,mp-728512
1.2607,-2.765958520501437,4,"Li,Mn,O,Si",LiMn(SiO3)2,mp-757013
1.2614,-2.33302256125,4,"Mo,O,Si,Zn",Zn3Si3(MoO6)2,mp-1154656
1.261699999999999,-2.049478991181656,6,"Ge,Na,O,S,Si,Zn",Na6Zn4Si3Ge4(S3O16)3,mp-2713769
1.2618,-2.698946549266397,4,"Li,Mn,O,Si",Li2Mn2Si3O10,mp-766544
1.2621,-2.533797610484035,6,"Ca,Na,O,S,Si,Ta",NaCaTaSi(SO6)2,mp-2712757
1.262699999999999,-2.577821055375,5,"Ba,Fe,O,S,Si",BaFe3Si4SO11,mp-1214792
1.2633,-2.474478113055556,2,"O,Si",SiO2,mp-555355
1.2641,-2.226302390075123,6,"Al,Ge,Na,O,S,Si",Na2Al4Si3Ge4(S3O16)3,mp-2716388
1.267399999999999,-2.743030471110837,6,"Na,Nb,O,S,Si,Y",Na2Y3Nb5Si6(SO8)6,mp-2713857
1.2679,-2.708621925414592,6,"Al,Na,O,S,Si,Ta",Na2Ta2Al2Si3(SO8)3,mp-2713976
1.2686,-2.289783934047619,4,"Co,Li,O,Si",LiCoSiO4,mp-762293
1.2686,-2.979829204965278,4,"Cr,Li,O,Si",Li2Cr(Si2O5)3,mp-775302
1.2688000000000001,-2.596676188575124,6,"Ca,Na,Nb,O,S,Si",Na6Ca8Nb16Si15(S7O48)3,mp-2716271
1.2697999999999992,-2.436207080591184,6,"Ge,Mg,Na,O,S,Si",Na14Mg4Si7Ge4S5O48,mp-2715655
1.2703,-2.597083105208887,6,"Mg,Na,Nb,O,S,Si",Na10Mg4Nb4Si7S5O48,mp-2715875
1.2709000000000001,-2.771887435432266,6,"Na,O,S,Si,Ti,Zr",Na2Zr4Ti4Si5S7O48,mp-2716185
1.271,-2.325105630951926,6,"In,Na,O,S,Si,Ta",Na6Ta2In6Si5S7O48,mp-2715864
1.2711000000000001,-2.548392367240215,6,"Hf,In,Na,O,S,Si",Na6Hf4In4Si5S7O48,mp-2716118
1.2711000000000001,-2.263377983956897,6,"Na,O,S,Si,Ti,Zn",Na6TiZn3Si2(SO6)4,mp-2712791
1.273299999999999,-2.468045995622743,6,"Ca,Na,O,S,Si,Ti",Na2Ca4Ti4SiS11O48,mp-2714024
1.273699999999999,-2.473906355526314,4,"Al,Ca,O,Si",CaAl2Si3O13,mp-2931674
1.279,-2.48183290625,4,"Mg,Ni,O,Si",Mg6SiNiO8,mp-1031821
1.280399999999999,-2.667680489612069,3,"Mn,O,Si",Mn3Si3O10,mp-861258
1.2806,-2.808587444626437,4,"Li,Mn,O,Si",LiMn(SiO3)2,mp-753447
1.2808000000000002,-2.43870408337128,6,"Na,Nb,O,S,Si,Zn",Na10Nb4Zn4Si7S5O48,mp-2715945
1.2811,-2.6101766529332453,6,"Ca,Na,Nb,O,S,Si",Na15Ca7Nb5Si9(SO8)9,mp-2716283
1.283599999999999,-2.356818169122743,6,"Ga,Na,O,S,Si,Ti",Na2Ti4Ga4Si3(S3O16)3,mp-2716463
1.2839,-2.841824415161291,4,"Ca,Cu,O,Si",CaCu2(Si2O5)4,mp-1330795
1.285499999999999,-2.637705861916666,4,"Al,Ba,O,Si",BaAl2(SiO5)2,mp-1204499
1.2857,-2.68317633476953,6,"Ge,La,Na,O,P,Si",Na4LaSi2GePO12,mp-2716182
1.2858,-2.544189979017981,6,"Ca,Na,O,S,Si,Ta",Na2Ca4Ta4Si3(S3O16)3,mp-2716296
1.2865,-2.349236143620689,5,"C,Mn,Na,O,Si",Na3MnSiCO7,mp-772101
1.2866,-2.33513956607595,3,"Fe,O,Si",Fe19(SiO4)12,mp-773636
1.286699999999999,-2.53994119378941,6,"Al,Na,O,S,Si,Ti",Na2Ti4Al4Si3(S3O16)3,mp-2716285
1.2879,-2.714184495897589,5,"Ag,Al,K,O,Si",K2Al11Si13(Ag3O16)3,mp-695452
1.2887,-2.251139416815477,4,"Co,Li,O,Si",LiCoSiO4,mp-759479
1.2887,-2.708990983172484,6,"Mg,Na,Nb,O,S,Si",Na14Mg4Nb4Si9(SO16)3,mp-2714807
1.2905,-2.411186018151961,5,"Mg,O,S,Si,Ta",Mg2Ta2SiS5O24,mp-2713083
1.292999999999999,-1.915255656607144,3,"Fe,O,Si",Fe5SiO8,mp-705744
1.2933,-2.374654509117032,5,"Ca,H,Mn,O,Si",Ca2Mn2Si4H8O17,mp-1195231
1.2942,-2.221392605337092,6,"Na,O,S,Si,Ti,Zn",Na10Ti2Zn6Si3(S3O16)3,mp-2714664
1.294699999999999,-2.739146092372743,6,"Na,Nb,O,S,Sc,Si",Na2Sc3Nb5Si6(SO8)6,mp-2713987
1.2955,-2.4131397088841,6,"Ca,Na,O,S,Si,Sn",Na10Ca2Si7Sn6S5O48,mp-2716029
1.296199999999999,-2.29143509523571,6,"Ge,Na,O,S,Si,Sn",Na6Si7Sn4Ge4S5O48,mp-2712946
1.2964,-2.238498679741379,4,"Mn,O,Si,Zn",MnZnSiO5,mp-1046626
1.299,-2.349885492857142,4,"Co,Li,O,Si",LiCoSiO4,mp-764945
1.2995,-2.559646844052566,6,"Mg,Na,O,S,Si,Ta",Na7Mg3TaSi3(SO8)3,mp-2714234
1.2996,-2.87670318875,4,"Mg,O,Si,V",MgVSiO5,mp-1046694
1.3007,-2.504538881221264,6,"Mg,Na,Nb,O,S,Si",Na42Mg20Nb4Si15(S7O48)3,mp-2716042
1.3011,-2.281689601496972,6,"Ca,Ge,Na,O,S,Si",Na6Ca4Si3Ge4(S3O16)3,mp-2713992
1.3023,-2.6071434804985643,6,"La,Na,O,S,Si,Sn",Na3LaSi2SnSO12,mp-2714469
1.303,-2.316180556904762,4,"Co,Li,O,Si",LiCoSiO4,mp-758423
1.305,-2.652153262694172,6,"Na,Nb,O,S,Si,Zn",Na6Nb20Zn4Si21(S5O48)3,mp-2715551
1.3065,-2.7856315755997763,6,"Na,O,S,Si,Ta,Y",Na2Y2Ta2Si3(SO8)3,mp-2713410
1.3073000000000001,-2.329689338333334,4,"Co,Li,O,Si",LiCoSiO4,mp-763240
1.307699999999999,-2.900695477500001,4,"Mg,O,Si,V",MgVSiO5,mp-1264059
1.308399999999999,-2.083099309285714,3,"Co,O,Si",Co2SiO4,mp-18941
1.310099999999999,-2.579402619503758,6,"Mg,Na,O,S,Si,Ti",Na10Mg4Ti4Si5S7O48,mp-2715152
1.3101,-2.527261643437501,3,"Al,O,Si",Al2SiO5,mp-1183015
1.311099999999999,-2.583040215002053,4,"Li,Mn,O,Si",LiMnSiO4,mp-775156
1.311099999999999,-2.556882383645833,4,"Cr,Li,O,Si",Li2CrSiO4,mp-757733
1.3113000000000001,-2.292513371285542,6,"Mg,Na,O,S,Si,Sn",Na2MgSiSn(SO6)2,mp-2713293
1.3114,-2.244513403580304,6,"Na,O,S,Si,Sn,Zn",Na6ZnSi6Sn7(SO8)6,mp-2714688
1.3128,-2.483662747777752,6,"Ca,Na,O,S,Si,Ta",Na18Ca20Ta4Si3(S11O48)3,mp-2713705
1.3135,-2.312849346190477,4,"Co,Li,O,Si",LiCoSiO4,mp-758521
1.314,-2.5045081267775062,6,"In,Na,Nb,O,S,Si",Na2Nb5In3Si6(SO8)6,mp-2713748
1.3146,-2.7042684056227433,6,"Na,Nb,O,S,Sc,Si",Na2Sc4Nb4Si5S7O48,mp-2716208
1.316,-2.028530710972223,5,"Al,N,Nd,O,Si",Nd4AlSi5(NO)7,mp-677612
1.316199999999999,-2.4387518817656,6,"Na,O,S,Si,Sn,Ti",Na2Ti4Si5Sn4S7O48,mp-2716183
1.3186,-2.911022818866667,4,"Li,O,Si,V",Li2V2(Si2O5)3,mp-773075
1.320999999999999,-1.941556358333335,5,"Al,N,O,Si,Sm",Sm4AlSi5(NO)7,mp-1173490
1.321199999999999,-2.4390196290130772,6,"Ge,Na,O,P,Si,Zn",Na7Zn2SiGe2P5O24,mp-2715592
1.3219,-2.6376735444999992,4,"Ca,O,Si,W",CaSi2WO6,mp-1253396
1.3245,-2.665774613581414,5,"Cs,Mo,O,P,Si",CsSi2Mo3P6O25,mp-1213518
1.3259,-2.990837399756945,4,"Cr,Li,O,Si",Li2Cr(Si2O5)3,mp-775349
1.3294000000000001,-2.739602526219753,6,"La,Na,O,S,Si,Ti",Na4La2Ti2Si3(SO8)3,mp-2713592
1.3295,-2.205700687060035,6,"In,Na,O,S,Si,Sn",Na6In4Si5Sn4S7O48,mp-2715898
1.329699999999999,-2.743791245508496,4,"Li,Mn,O,Si",Li4Mn2Si4O13,mp-758881
1.331699999999999,-2.514021109897872,6,"In,Na,O,S,Si,Zr",Na6Zr4In4Si5S7O48,mp-2715956
1.332,-2.318789732857143,4,"Co,Li,O,Si",LiCoSiO4,mp-753125
1.3327,-2.754588792924138,5,"Ca,Fe,Na,O,Si",Na9CaFe10(SiO3)20,mp-720248
1.3333,-2.304693629761906,4,"Co,Li,O,Si",LiCoSiO4,mp-752534
1.334,-2.303131396296296,4,"Ag,O,Si,Ti",TiSiAg2O5,mp-1094028
1.334,-2.448736900942998,6,"Ge,Na,O,P,Si,Zn",Na4ZnSiGe(PO6)2,mp-2714417
1.3343,-2.778275920351308,5,"Ca,O,S,Si,Ta",Ca2Ta10Si9(SO8)9,mp-2713783
1.335999999999999,-2.427310479463601,4,"Li,Mn,O,Si",Li7Mn3(SiO6)2,mp-767011
1.337099999999999,-2.811151238863636,4,"La,Mo,O,Si",La3Si(Mo2O7)2,mp-1224288
1.3374000000000001,-2.681174748729583,4,"Mg,Mn,O,Si",Mg2Mn2(SiO4)3,mp-1264900
1.3376000000000001,-2.498166755781155,6,"In,Na,O,S,Si,Ti",Na4Ti2In2Si3(SO8)3,mp-2713697
1.3383999999999991,-2.937037472986111,4,"Cr,Li,O,Si",Li2Cr(Si2O5)3,mp-767058
1.3415,-2.560680467562728,6,"Na,Nb,O,S,Si,Zn",Na14Nb4Zn4Si9(SO16)3,mp-2714739
1.342,-2.324342406369048,4,"Co,Li,O,Si",LiCoSiO4,mp-757822
1.342799999999999,-2.751328793409089,4,"Mo,Nd,O,Si",Nd3Si(Mo2O7)2,mp-1220991
1.342799999999999,-2.2179951873780492,4,"Ge,O,Rb,Si",Rb14Si6Ge4O17,mp-680314
1.3434,-2.710076454098932,5,"Na,O,S,Si,Ti",Na2Ti8Si5S7O48,mp-2716144
1.344399999999999,-2.954842012917241,4,"Li,Mn,O,Si",Li3Mn(Si2O5)3,mp-758981
1.345,-1.967060266818181,4,"H,Mg,O,Si",Mg4Si6H6O17,mp-1212371
1.345899999999999,-2.8752823682537283,6,"Na,O,S,Si,Ti,Zr",Na6Zr4Ti4Si7S5O48,mp-2712907
1.3485,-2.324631388091475,5,"C,Li,Mn,O,Si",Li2MnSiCO7,mp-768606
1.3491,-2.330106288159552,6,"Na,O,S,Si,Sn,Zn",Na4ZnSi2SnSO12,mp-2714570
1.3509,-2.339522306992467,6,"Ga,Na,Nb,O,S,Si",Na6Nb2Ga6Si5S7O48,mp-2715987
1.3511,-2.586499539327421,5,"Na,O,P,Si,Zr",Na9Zr8Si4(P4O23)2,mp-720989
1.3514,-2.745523157115573,6,"Ca,Na,Nb,O,S,Si",Na14Ca4Nb4Si9(SO16)3,mp-2714905
1.3527,-2.292640229390805,4,"Mn,O,Pb,Si",Mn2Si2Pb2O9,mp-557611
1.3528,-2.543195657254902,5,"Li,O,Si,V,Zn",LiV2Zn2(SiO5)2,mp-1235640
1.3529,-1.9243707175245102,5,"Ge,In,O,S,Si",In2SiGe2S5O24,mp-2713102
1.3557000000000001,-2.212019582138864,6,"Ge,Na,O,S,Si,Zn",Na6ZnSi6Ge7(SO8)6,mp-2716474
1.356899999999999,-2.634179658409963,6,"Ca,Na,O,S,Si,Ti",Na2CaTi3Si2(SO6)4,mp-2712680
1.357,-2.291032371440665,6,"Mg,Na,O,S,Si,Sn",Na6MgSi6Sn7(SO8)6,mp-2716360
1.357299999999999,-2.31761445862769,6,"Ca,Ga,Na,O,S,Si",Na10Ca4Ga4Si3(S3O16)3,mp-2714784
1.3578000000000001,-2.82080113710508,6,"Mg,Na,Nb,O,S,Si",Na18Mg4Nb20Si27(SO16)9,mp-2712852
1.3587999999999991,-1.969738762328432,5,"In,O,S,Si,Sn",In2SiSn2S5O24,mp-2713067
1.359999999999999,-2.4491728963143142,6,"Ge,Mg,Na,O,S,Si",Na8Mg3Si3Ge(SO8)3,mp-2715151
1.359999999999999,-2.738191954374999,2,"O,Si",SiO2,mp-560754
1.3602,-2.759758399763073,5,"Mg,O,S,Si,Ta",Mg2Ta10Si9(SO8)9,mp-2713808
1.3615,-2.208650398098934,6,"Ga,Na,Nb,O,S,Si",Na2Nb2Ga6Si3(S3O16)3,mp-2716476
1.3618000000000001,-2.46449920663351,5,"B,Mn,Na,O,Si",Na3MnSiBO7,mp-772970
1.3627999999999991,-2.3734600212820522,4,"Ag,O,Si,Y",YSi2Ag3O7,mp-1207721
1.367,-2.763261230033007,6,"Na,Nb,O,S,Si,Zn",Na18Nb20Zn4Si27(SO16)9,mp-2713037
1.3672,-2.801238165970147,6,"Na,O,S,Sc,Si,Ta",Na2Sc2Ta2Si3(SO8)3,mp-2713443
1.3683,-2.588218934798774,6,"Mg,Na,O,S,Si,Ta",Na6Mg4Ta4Si5S7O48,mp-2716062
1.368399999999999,-2.496407343333333,4,"Fe,Li,O,Si",Li3Fe2(SiO4)2,mp-758569
1.3686999999999991,-2.437145035,4,"O,Si,Sn,Zn",Zn3Si4(SnO7)2,mp-1256934
1.369,-2.597601196145834,4,"Cr,Li,O,Si",Li2CrSiO4,mp-758188
1.370499999999999,-2.467116881632354,5,"Ge,O,S,Si,Ta",Ta2Si3Ge2(SO8)3,mp-2713784
1.371699999999999,-2.547949637287018,4,"Fe,Na,O,Si",NaFe3Si3O10,mp-559532
1.372199999999999,-2.133302413569043,6,"Ga,In,Na,O,S,Si",Na6In4Ga4Si3(S3O16)3,mp-2713772
1.3731,-2.829751909279919,4,"Na,Ni,O,Si",Na2Si4NiO10,mp-505307
1.3731,-2.307764374404763,4,"Co,Li,O,Si",LiCoSiO4,mp-777657
1.3732,-2.379923741307472,6,"Ca,Ge,Na,O,S,Si",Na4Ca3SiGeS5O24,mp-2713145
1.3737,-2.2582338867559812,6,"Ge,Mg,Na,O,S,Si",Na6MgSi6Ge7(SO8)6,mp-2714893
1.374299999999999,-2.618016614244299,6,"Mg,Na,O,S,Si,Ta",Na42Mg16Ta8Si21(S5O48)3,mp-2715535
1.375599999999999,-2.514606157717391,5,"Be,Fe,O,S,Si",Be3Fe4Si3SO12,mp-627398
1.376199999999999,-2.725265376018072,5,"Ag,Al,K,O,Si",K2Al11Si13(Ag3O16)3,mp-1248874
1.380099999999999,-2.494272495,4,"Fe,Li,O,Si",Li3Fe2(SiO4)2,mp-758973
1.3802,-2.779948310903335,5,"Na,O,P,Si,Zr",Na9Zr8Si4(PO6)8,mp-720460
1.381599999999999,-2.159495943337027,5,"Na,O,S,Si,Sn",Na2Si5Sn8S7O48,mp-2716233
1.382099999999999,-2.481188487083333,2,"O,Si",SiO2,mp-558366
1.382299999999999,-2.324520614761905,4,"Co,Li,O,Si",LiCoSiO4,mp-752660
1.3823,-2.327302776190477,4,"Co,Li,O,Si",LiCoSiO4,mp-763255
1.383099999999999,-2.813338582860838,6,"Hf,Na,O,S,Si,Ti",Na2Hf4Ti4Si5S7O48,mp-2716234
1.384799999999999,-2.245367120005895,6,"Na,O,S,Si,Sn,Zn",Na10Zn3Si6Sn5(SO8)6,mp-2716367
1.3867,-2.588295820821296,6,"Ge,Na,O,S,Si,Zr",Na6Zr4Si7Ge4S5O48,mp-2712912
1.387,-2.372585153896073,6,"Ga,Na,O,S,Si,Y",Na2Y2Ga2SiS5O24,mp-2715585
1.3878,-2.403452193039592,6,"Ge,Na,O,S,Sc,Si",NaScSiGe(SO6)2,mp-2712555
1.3889,-2.6491164132424663,6,"Al,Na,Nb,O,S,Si",Na6Nb3Al5Si6(SO8)6,mp-2716557
1.3892,-2.732972133333334,4,"Li,O,Si,V",Li4V2Si3O10,mp-766379
1.3918,-2.575194379551313,6,"Ca,Na,O,S,Si,Ti",Na2Ca2Ti6Si3(S3O16)3,mp-2716475
1.3921000000000001,-2.777232318828053,6,"Na,Nb,O,S,Si,Y",Na6Y5Nb3Si6(SO8)6,mp-2714870
1.3925,-1.975957786666665,4,"Cd,O,Pb,Si",Cd3Si2Pb3O10,mp-1226884
1.3937,-2.884954565652174,4,"Ca,Co,O,Si",Ca3Co2(Si2O7)2,mp-1256217
1.3937,-3.100653738437501,4,"Ba,Fe,O,Si",BaFe(Si2O5)2,mp-504885
1.394299999999999,-2.47595585834804,5,"Ca,O,S,Si,Ta",Ca2Ta2SiS5O24,mp-2713091
1.3944,-2.471726286953124,5,"Ca,Fe,H,O,Si",CaFe3Si2HO9,mp-721924
1.3956,-2.326960559975491,5,"O,S,Si,Sn,Y",Y2SiSn2S5O24,mp-2712902
1.3978000000000002,-2.484742508887256,5,"O,S,Si,Sn,Ta",Ta2Si3Sn2(SO8)3,mp-2713836
1.398499999999999,-2.515546219,4,"Fe,Li,O,Si",Li3Fe2(SiO4)2,mp-758173
1.3987999999999992,-2.7219788768749993,4,"Mg,Nb,O,Si",Mg14NbSiO16,mp-1034756
1.3997,-2.4160513486917923,6,"Na,O,S,Si,Ti,Zn",Na10Ti4Zn4Si5S7O48,mp-2715076
1.4005,-2.398413173007294,6,"B,Fe,H,Na,O,Si",NaFe9Si6B3H2O31,mp-1121875
1.4009,-2.7315196934679813,6,"La,Na,Nb,O,S,Si",Na2La3Nb5Si6(SO8)6,mp-2713869
1.4009,-2.308128166904762,4,"Co,Li,O,Si",LiCoSiO4,mp-759261
1.4015,-2.441713479375,4,"Mg,Nb,O,Si",Mg6NbSiO8,mp-1030823
1.4038,-2.7923957375201143,5,"Ca,Fe,Na,O,Si",Na3CaFe4(SiO3)8,mp-1173803
1.4039000000000001,-2.279661640508032,6,"Ge,Na,O,S,Si,Zn",Na10Zn2Si7Ge6S5O48,mp-2714167
1.405399999999999,-2.127930987513611,6,"Na,O,S,Si,Sn,Zn",Na2ZnSiSn(SO6)2,mp-2713220
1.4069,-2.541422405496068,6,"Mg,Na,O,S,Si,Ti",Na2MgTiSi(SO6)2,mp-2713623
1.4073,-2.596851258333333,4,"Cr,Li,O,Si",Li2CrSiO4,mp-752524
1.407699999999999,-2.464606589761903,4,"Fe,Li,O,Si",LiFeSiO4,mp-756430
1.4079000000000002,-2.457135166646553,6,"Na,O,S,Si,Ti,Zn",Na2Ti6Zn2Si3(S3O16)3,mp-2716558
1.408299999999999,-2.649274938831897,6,"Ca,Na,Nb,O,S,Si",Na3CaNbSi2SO12,mp-2714453
1.4089,-2.364855663542219,6,"Ge,Mg,Na,O,S,Si",Na10Mg2Si7Ge6S5O48,mp-2716087
1.409199999999999,-3.016721267022989,4,"Al,Na,O,Si",Na8Al6Si6O25,mp-684833
1.4092,-2.561408700277778,2,"O,Si",SiO2,mp-557814
1.4096,-2.340348582848323,6,"Na,O,S,Si,Ti,Zn",Na6Ti4Zn4Si3(S3O16)3,mp-2713926
1.4123,-2.5970038168114513,6,"Ca,Na,Nb,O,S,Si",Na30Ca16Nb8Si15(S7O48)3,mp-2715153
1.4127,-2.303406188461537,3,"Fe,O,Si",Fe3(SiO4)2,mp-850744
1.4128,-2.308215823809524,4,"Co,Li,O,Si",LiCoSiO4,mp-759114
1.4129,-2.687376414004516,6,"Ge,La,Na,O,P,Si",Na3LaSiGe(PO6)2,mp-2715508
1.4136,-2.750409129167979,6,"Ca,Na,O,S,Si,Ta",NaCaTa3Si3(SO8)3,mp-2713867
1.4147999999999992,-1.5782914487857131,3,"H,O,Si",Si2H2O3,mp-627349
1.415,-1.824425581309681,3,"Cs,O,Si",Cs10Si7O9,mp-581173
1.4152999999999991,-2.640552675884647,6,"La,Na,O,S,Si,Ti",Na2La4Ti4Si3(S3O16)3,mp-2716469
1.4162,-2.917987165280172,4,"Mg,Mn,O,Si",Mg30MnSiO32,mp-1038039
1.4172,-2.312687986190477,4,"Co,Li,O,Si",LiCoSiO4,mp-763313
1.417599999999999,-2.727057510952381,3,"Cr,O,Si",Cr4Si4O13,mp-768078
1.417799999999999,-2.935761104166667,3,"O,Si,V",V(SiO3)2,mp-25239
1.4198,-2.796849893888888,4,"Li,O,Si,V",Li2VSi2O7,mp-1177775
1.4201000000000001,-2.764208105843818,6,"Na,O,S,Si,Ti,Y",Na6Y4Ti4Si5S7O48,mp-2715901
1.4207,-2.744896837521893,4,"Li,Mn,O,Si",Li2Mn3(SiO3)4,mp-774444
1.420799999999999,-1.6652782472222212,4,"Cl,O,Pb,Si",SiPb7(ClO4)2,mp-1219347
1.4219,-2.293767506904763,4,"Co,Li,O,Si",LiCoSiO4,mp-763246
1.4221,-2.32557448654762,4,"Co,Li,O,Si",LiCoSiO4,mp-510760
1.4221,-2.208829387956076,6,"Na,O,S,Si,Ti,Zn",Na2Ti4Zn4SiS11O48,mp-2714022
1.423699999999999,-2.8190947155332062,4,"Li,Mn,O,Si",Li2MnSi4O11,mp-779020
1.4259,-2.841464561793104,4,"Mg,Mn,O,Si",Mg3Mn2(SiO4)3,mp-1258129
1.426,-2.128363137300397,5,"Ga,H,Na,O,Si",Na6Ga5Si7H15O32,mp-1173745
1.4261,-2.37213875264562,6,"Al,Ge,Na,O,S,Si",Na6Al4Si5Ge4S7O48,mp-2715944
1.4262000000000001,-2.473656820078053,6,"Ge,Na,O,S,Sc,Si",Na6Sc4Si5Ge4S7O48,mp-2716048
1.427299999999999,-2.545415878132184,6,"Al,Na,Nb,O,S,Si",Na2NbAl3Si2(SO6)4,mp-2712714
1.4277,-3.1382886890000012,4,"Ca,O,Si,V",CaV(SiO3)2,mp-1133299
1.433699999999999,-2.647729664717433,6,"Na,Nb,O,S,Si,Zn",Na30Nb16Zn8Si27(SO16)9,mp-2714307
1.4352,-2.411704004498564,6,"Ge,Mg,Na,O,S,Si",Na6MgSi4Ge3(SO12)2,mp-2714478
1.4356,-2.668335577468361,6,"Ca,Na,O,P,Si,Sn",Na7Ca2SiSn2P5O24,mp-2715532
1.4363000000000001,-2.055651728235294,3,"O,Si,V",V2Si4O11,mp-861633
1.4398,-2.100472017930278,6,"Na,Nb,O,S,Si,Zn",Na12Nb2Zn10Si3(S5O24)3,mp-2713396
1.4407,-2.133359936479885,6,"Ge,Na,O,S,Si,Sn",Na2Si5Sn4Ge4S7O48,mp-2716139
1.4410999999999992,-2.309478480833334,4,"Co,Li,O,Si",LiCoSiO4,mp-758703
1.4423,-2.78533759922598,6,"La,Na,O,S,Si,Ti",Na10La4Ti4Si7S5O48,mp-2715966
1.4425,-2.404925044681373,5,"Al,Nb,O,S,Si",NbAl3SiS5O24,mp-2712850
1.4431,-2.754813849796522,6,"La,Na,Nb,O,S,Si",Na6La5Nb3Si6(SO8)6,mp-2714829
1.4436,-2.947856545,4,"Ca,Mg,O,Si",CaMg30SiO32,mp-1037835
1.4438,-2.505998672083334,4,"Li,Ni,O,Si",LiSi2NiO6,mp-753300
1.444699999999999,-2.304542346732267,6,"Na,O,S,Si,Ta,Zn",Na2Ta4Zn4Si3(S3O16)3,mp-2716451
1.4453,-2.781874755,3,"Mg,O,Si",MgSiO3,mp-642209
1.445399999999999,-2.405025239098323,6,"In,Na,Nb,O,S,Si",Na6Nb3In5Si6(SO8)6,mp-2714670
1.4457,-1.995441140714286,5,"Cl,Cr,O,Pb,Si",Cr3Si3Pb10(ClO12)2,mp-1226647
1.4457,-2.727030693132184,6,"Na,Nb,O,S,Si,Y",Na2Y3NbSi2(SO6)4,mp-2712761
1.447799999999999,-3.563593093333333,3,"Ce,O,Si",CeSiO4,mp-10523
1.4484,-2.709656920906864,5,"Nb,O,S,Si,Ti",Ti2Nb2Si3(SO8)3,mp-2713861