band_gap,formation_energy_per_atom,nelements,elements,formula,material_id
4.1812,-3.07096433903589,5,"Mg,Na,O,Si,Zn",Na2Mg3Zn2(Si2O5)6,mp-1221527
4.181599999999999,-3.152825502461102,5,"Hf,Na,O,S,Si",Na14Hf8Si11SO48,mp-2714502
4.1838,-3.111579099,4,"Mg,O,Rb,Si",Rb2MgSi5O12,mp-1080284
4.1841,-2.5230575618333333,5,"Al,H,Li,O,Si",LiAlSiH2O5,mp-604420
4.184699999999999,-2.965828903023497,6,"Al,Na,O,P,Si,Zr",Na4ZrAlSi2PO12,mp-2716236
4.1847,-1.904229282164013,5,"F,H,Mn,O,Si",MnSiH12(OF)6,mp-1181030
4.1851,-2.910333968583653,4,"K,Na,O,Si",K4Na2(Si2O5)3,mp-542686
4.1863,-3.1364561250625,5,"Al,Fe,Mg,O,Si",Mg9Al8Fe3(SiO4)12,mp-1222247
4.1874,-0.38235577119047603,5,"C,H,N,O,Si",Si2H36C12N6O7,mp-1202968
4.1875,-2.774980613039927,5,"Na,O,S,Si,Y",Na2Y2Si(SO6)2,mp-2713538
4.1906,-3.0834350917693962,6,"Hf,Na,O,S,Si,Zr",Na6Hf2Zr2Si5SO24,mp-2713809
4.1913,-3.027125870601396,5,"H,Mg,Na,O,Si",NaMg3Si4HO12,mp-1221204
4.1957,-2.961599915972222,2,"O,Si",SiO2,mp-1204026
4.197399999999999,-1.7263031252500012,3,"N,O,Si",Si2N2O,mp-2948
4.1993,-3.127144227949145,5,"Na,O,P,Si,Zr",Na17Zr12Si11P7O72,mp-697308
4.199400000000001,-3.476631411785713,3,"Ca,O,Si",Ca2SiO4,mp-4481
4.2023,-3.472123711666666,4,"Al,O,Si,Sr",Sr2Al2SiO7,mp-1218879
4.2033,-2.688993486847827,5,"Be,O,S,Si,Zn",Be3Zn4Si3SO12,mp-6856
4.203699999999999,-3.006059055960006,6,"Al,Hf,Na,O,P,Si",Na4HfAlSi2PO12,mp-2715690
4.2057,-2.998382463715518,4,"Cs,O,Si,Zn",Cs2ZnSi5O12,mp-1214991
4.2087,-3.194776364252763,6,"Hf,Na,O,P,Si,Zr",Na3Hf2Zr2SiP5O24,mp-2713063
4.209799999999999,-2.9587276280818973,6,"Hf,Na,O,S,Sc,Si",Na3HfScSi2SO12,mp-2714394
4.2104,-3.120045022984914,4,"Ca,Na,O,Si",Na2Ca2(SiO3)3,mp-1221449
4.2109,-3.59683571325,4,"Ca,O,Sc,Si",Ca3Sc2(SiO4)3,mp-6255
4.2125,-2.9311972060862472,6,"Al,La,Na,O,P,Si",Na7La2Al2SiP5O24,mp-2715632
4.213100000000001,-2.69688122877193,4,"Li,Ni,O,Si",Li2Si4Ni2O11,mp-757344
4.2135,-3.123328260375809,4,"Na,O,Si,Tm",Na3Tm(SiO3)3,mp-1195518
4.215299999999999,-3.140645247476017,5,"Na,O,P,Si,Zr",Na2Zr2Si(PO6)2,mp-2712624
4.216200000000001,-2.950284482333335,4,"N,O,Si,Y",YSiNO2,mp-559569
4.2164,-2.782260907281249,4,"K,Mg,O,Si",K2MgSiO4,mp-15171
4.2166999999999994,-3.728757956250001,3,"La,O,Si",La2SiO5,mp-771045
4.2171,-3.131005584722013,5,"Na,O,P,Si,Zr",Na5Zr4Si3(PO8)3,mp-2714067
4.2191,-3.012579718205121,3,"O,Rb,Si",Rb6Si10O23,mp-555837
4.2227,-2.99216316966129,4,"K,O,Si,Zn",K2Zn2Si8O19,mp-559127
4.2249,-2.9516420339724263,6,"Hf,Mg,Na,O,P,Si",Na7Hf2Mg2SiP5O24,mp-2715556
4.2252,-3.097984127254516,6,"Ca,Hf,Na,O,P,Si",Na6CaHf3Si2(PO6)4,mp-2715307
4.2254,-3.150574781189701,5,"Na,O,P,Si,Zr",Na3Zr4SiP5O24,mp-2712916
4.2256,-2.248069259117648,4,"Al,H,O,Si",Al2Si2H4O9,mp-1183008
4.225899999999999,-2.862283781436782,5,"Ga,Li,Na,O,Si",Na3LiGa4(SiO3)8,mp-1221279
4.2259,-2.925440170431033,4,"H,Mg,O,Si",Mg7Si4(HO8)2,mp-722896
4.2279,-1.5562191359375,4,"Ba,N,O,Si",BaSi6N8O,mp-557414
4.2288,-2.882499321705883,4,"Ba,K,O,Si",K4Ba(SiO3)3,mp-558347
4.2293,-2.785973274166667,4,"Ga,Li,O,Si",LiGaSiO4,mp-18147
4.229699999999999,-2.637606193127647,6,"Al,Na,O,S,Sc,Si",Na2ScAlSi(SO6)2,mp-2713283
4.2314,-3.129091416939039,5,"Na,O,P,Si,Zr",Na3Zr2Si2PO12,mp-39123
4.2323,-3.099992937953933,4,"Na,O,Si,Y",Na3Y(SiO3)3,mp-1203085
4.2326999999999995,-3.387667153376623,4,"Al,O,Si,Sr",Sr5Al10(Si7O24)2,mp-720112
4.233600000000001,-3.220907909999999,4,"Ca,Mg,O,Si",Ca2MgSi2O7,mp-677780
4.234999999999999,-3.039123857794227,6,"Al,Cl,I,Na,O,Si",Na16Al12Si12I3ClO48,mp-1221546
4.2351,-3.4948259459210522,4,"Ba,O,Si,Zr",Ba2Zr2(SiO4)3,mp-1214740
4.2352,-2.659458528392054,5,"Br,Ga,Na,O,Si",Na4Ga3Si3BrO12,mp-23659
4.236,-2.567895787426471,5,"Al,Hf,O,S,Si",Hf2Al2SiS5O24,mp-2712951
4.2369,-3.130876276156608,5,"Al,Ca,Na,O,Si",NaCaAlSi2O7,mp-1248468
4.2387,-2.430456442177965,5,"H,K,O,Si,Sr",KSr4Si8H17O29,mp-1224714
4.2443,-2.367107968050767,5,"Mg,Na,O,S,Si",Na10Mg8SiS11O48,mp-2713287
4.2447,-2.585745625277778,4,"H,Mg,O,Si",Mg3Si2H4O9,mp-23764
4.2455,-2.925170153737962,6,"Hf,Na,O,S,Si,Y",Na3YHf3Si3(SO8)3,mp-2714719
4.2471,-2.872665538265721,4,"Na,O,Si,Sr",Na4Sr(SiO3)3,mp-559773
4.2499,-2.586002241666667,4,"H,Mg,O,Si",Mg3Si2H4O9,mp-24097
4.2501,-3.103895212211538,4,"Al,O,Pb,Si",Al2Si2PbO8,mp-1196145
4.2524,-2.231634270266071,6,"B,Ga,H,Na,O,Si",Na4Ga3Si3B(HO3)4,mp-534870
4.2539,-3.103574086409482,6,"Ca,Na,O,Sc,Si,Zn",NaCa3ScZn3(SiO3)8,mp-1221120
4.2542,-2.532609990333334,5,"Al,H,Li,O,Si",LiAlSiH2O5,mp-1255402
4.2562,-3.105306262596153,4,"Al,O,Pb,Si",Al2Si2PbO8,mp-1195073
4.2568,-3.078273517546183,6,"Hf,Mg,Na,O,P,Si",Na6Hf3MgSi2(PO6)4,mp-2715407
4.2568,-3.055760521221264,5,"In,Na,O,Sc,Si",Na2ScIn(SiO3)4,mp-1221317
4.259200000000001,-3.052228109261619,6,"Al,Cl,I,Na,O,Si",Na8Al6Si6IClO24,mp-1220856
4.260099999999999,-3.026901590839491,5,"H,Mg,Na,O,Si",NaMg3Si4HO12,mp-1173602
4.262199999999999,-3.306012244839901,4,"La,Na,O,Si",NaLaSiO4,mp-1210123
4.2622,-2.819815916862746,4,"Li,Ni,O,Si",Li2Si4NiO10,mp-1261461
4.2639,-3.352404316956522,3,"Al,O,Si",Al8SiO14,mp-772413
4.2663,-2.9774721459211833,6,"Al,Na,O,P,Si,Zr",Na3ZrAlSi(PO6)2,mp-2715498
4.2665,-2.946104038647059,4,"K,O,Si,Zn",K2Zn(Si2O5)2,mp-555568
4.2668,-2.8678321534856313,5,"Ga,Li,Na,O,Si",NaLiGa2(SiO3)4,mp-1220982
4.2706,-3.1187051876483842,6,"Hf,Na,O,P,Si,Y",Na7Y2Hf2Si3(PO8)3,mp-2715180
4.2711,-2.923586025764989,6,"Hf,Na,O,S,Sc,Si",Na3Hf3ScSi3(SO8)3,mp-2714790
4.2722,-2.888874676583333,4,"Ga,Li,O,Si",LiGa(SiO3)2,mp-6745
4.273,-3.070061787470717,6,"Al,B,H,Na,O,Si",Na2Al17Si11B7(H3O31)2,mp-534773
4.2732,-3.002395443848997,6,"Hf,Na,O,P,Si,Zn",Na5Hf3ZnSiP5O24,mp-2715833
4.2736,-3.084280239019936,6,"Hf,Mg,Na,O,P,Si",Na5Hf3MgSiP5O24,mp-2715887
4.275,-2.794801625320512,6,"Al,Ca,H,O,Si,Sn",Ca2Al2Si6Sn(H3O11)2,mp-1198749
4.2755,-2.775217750324074,5,"B,Ca,H,O,Si",CaSiBHO5,mp-1238309
4.2757,-2.615272098427835,4,"H,Mg,O,Si",Mg48Si34H62O147,mp-1205288
4.276599999999999,-2.9570179269790113,6,"Al,Be,Cl,Na,O,Si",Na4BeAlSi4ClO12,mp-42508
4.2766,-3.087274988446516,6,"Mg,Na,O,Rb,Si,Zn",RbNaMg3Zn2(Si2O5)6,mp-1219802
4.2768,-2.592693925836926,4,"H,Na,O,Si",NaSi8H7O20,mp-1197746
4.2786,-3.290342111625615,4,"Na,O,Si,Sm",NaSmSiO4,mp-17357
4.2788,-3.607447267727273,3,"O,Sc,Si",Sc2Si2O7,mp-5594
4.2796,-3.3462597766256152,4,"Na,O,Si,Y",NaYSiO4,mp-17891
4.2808,-3.13281957341133,4,"Al,Na,O,Si",NaAlSiO4,mp-1198056
4.2809,-2.810062062232456,5,"H,In,K,O,Si",K2InSi4HO11,mp-775466
4.2813,-3.23688518211413,6,"Ca,F,K,O,S,Si",KCa12Si4S2O26F,mp-557227
4.2818,-2.500310793833334,5,"Al,H,Li,O,Si",LiAlSiH2O5,mp-655048
4.2822,-3.131840722225064,6,"Hf,Na,O,P,Sc,Si",Na5Hf2Sc2SiP5O24,mp-2714300
4.283200000000001,-3.103651171370363,6,"Ca,Hf,Na,O,P,Si",Na5CaHf3SiP5O24,mp-2716117
4.284800000000001,-3.443058467916666,4,"Al,Ca,O,Si",Ca2Al2SiO7,mp-559691
4.285,-3.086494195074068,6,"K,Mg,Na,O,Si,Zn",KNaMg3Zn2(Si2O5)6,mp-1223684
4.2889,-2.682350928174663,5,"Cl,Ga,Na,O,Si",Na4Ga3Si3ClO12,mp-23656
4.2895,-3.053716061607142,5,"Ca,Cl,O,S,Si",Ca10Si3S3(ClO12)2,mp-1227702
4.291799999999999,-3.395796396,4,"Al,Ca,O,Si",CaAl2SiO6,mp-1019583
4.2925,-3.114453704504515,6,"Hf,Na,O,P,Si,Y",Na3YHfSi(PO6)2,mp-2715224
4.2940000000000005,-3.4004144048125,5,"K,O,Sc,Si,Sr",KSr6Sc(SiO4)4,mp-1211967
4.2941,-3.116691716736316,5,"K,Na,O,Si,Zr",K3NaZr2(SiO4)3,mp-2716298
4.2953,-2.877053568784483,5,"Ga,Li,Na,O,Si",NaLi3Ga4(SiO3)8,mp-1220817
4.296,-3.098730219615384,4,"Al,O,Pb,Si",Al2Si2PbO8,mp-1228563
4.297999999999999,-3.440273789479167,4,"B,La,O,Si",LaSiBO5,mp-1222841
4.3038,-3.104508352115384,4,"Al,O,Pb,Si",Al2Si2PbO8,mp-1194510
4.3043,-3.244864030287356,4,"Ca,Na,O,Si",Na2Ca3(Si3O8)2,mp-558087
4.3057,-2.974973410646551,3,"Na,O,Si",Na2Si3O7,mp-556198
4.3077,-3.110942861923076,4,"Ca,O,Si,Zn",CaZnSi3O8,mp-554905
4.308,-3.084747745,3,"Mg,O,Si",MgSiO3,mp-642210
4.308999999999999,-3.407465906458332,5,"Al,Ca,Mg,O,Si",Ca4MgAl2Si3O14,mp-1227598
4.3118,-3.333183514804591,4,"Na,O,Si,Tb",NaTb(SiO3)2,mp-1193942
4.3133,-3.179809052826895,6,"Hf,Na,O,P,Si,Zr",Na2HfZrSi(PO6)2,mp-2712783
4.3135,-3.120388765769397,5,"Hf,Na,O,S,Si",Na6Hf4Si5SO24,mp-2713879
4.314500000000001,-3.023134895414872,5,"Ca,Na,O,Si,Zr",Na6CaZr(SiO3)6,mp-695056
4.3155,-3.167505429593806,6,"Hf,Na,O,P,Si,Zr",Na5Hf2Zr2Si3(PO8)3,mp-2714218
4.3207,-2.6172254138736273,4,"H,Mg,O,Si",Mg45Si32(H29O69)2,mp-1204533
4.321199999999999,-3.117013184310344,4,"Na,O,Si,Zr",Na4Zr2(SiO4)3,mp-6150
4.3228,-3.434464781538461,4,"Al,Ba,O,Si",BaAl2(SiO4)2,mp-1227986
4.3251,-3.070835463671182,6,"Hf,La,Na,O,P,Si",Na3LaHfSi(PO6)2,mp-2715314
4.325299999999999,-3.090083860416667,2,"O,Si",SiO2,mp-555544
4.327500000000001,-2.976630451942528,5,"Al,Be,Na,O,Si",Na3BeAl(SiO4)2,mp-556258
4.3284,-2.487717596833333,5,"Al,H,Li,O,Si",LiAlSiH2O5,mp-604430
4.3297,-3.5578460950000013,3,"La,O,Si",La2(SiO3)3,mp-756888
4.3301,-3.403650273492063,5,"Al,Ca,Cl,O,Si",Ca12Al11Si3Cl5O32,mp-720971
4.3369,-3.121226425633286,5,"Na,O,P,Si,Zr",Na7Zr4Si5PO24,mp-2714434
4.337899999999999,-3.132581540002842,6,"Hf,Na,O,P,Si,Y",Na5Y2Hf2SiP5O24,mp-2714204
4.3381,-3.133035768814039,5,"Na,O,P,Si,Zr",Na3Zr2Si2PO12,mp-2713548
4.338900000000001,-3.057006902413793,5,"Al,Cl,Na,O,Si",Na4Al3Si3ClO12,mp-1221210
4.3398,-2.9458503438001413,6,"Al,Na,O,P,Sc,Si",Na4ScAlSi(PO6)2,mp-2714619
4.3406,-3.464139528749999,4,"Al,Ca,O,Si",Ca2Al2SiO7,mp-1227499
4.3415,-2.504867028265305,4,"Ni,O,P,Si",SiNi2(P2O7)2,mp-554616
4.3422,-3.444504484390243,4,"Ba,O,Sc,Si",Ba9Sc2(SiO4)6,mp-558428
4.3438,-3.362770839550001,5,"Al,Ca,Mg,O,Si",Ca10Mg7Al6Si17O60,mp-677026
4.3438,-2.597859470966665,5,"Al,Cl,H,O,Si",Al13Si5H18ClO38,mp-706657
4.345000000000001,-3.444827183635972,6,"Ca,F,Nd,O,P,Si",Ca18Nd2Si3P9(O16F)3,mp-534782
4.345099999999999,-3.305619005655173,5,"Al,Cs,Mg,O,Si",CsMg12Al25Si29O108,mp-695172
4.3452,-3.288611039285715,3,"Ba,O,Si",BaSi4O9,mp-9478
4.3458,-3.307182992758622,4,"Al,Mg,O,Si",Mg2Al4Si5O18,mp-684265
4.347499999999999,-3.165456940249999,5,"F,K,O,Si,Y",K5Y2Si4O13F,mp-1195556
4.348699999999999,-3.127814670649425,5,"Li,Mg,Na,O,Si",Na3LiMg4(Si2O5)6,mp-1221336
4.349,-2.468709302708332,6,"Al,Ga,H,Li,O,Si",Li2AlGaSi2(H2O5)2,mp-1222936
4.3498,-2.3811499417447193,6,"Al,Mg,Na,O,S,Si",Na6Mg4Al4SiS11O48,mp-2713714
4.3506,-2.567467476562499,4,"Ba,H,O,Si",BaSi(HO2)2,mp-1236963
4.3507,-3.733162076041665,3,"Dy,O,Si",Dy2SiO5,mp-768411
4.3509,-3.133163484125615,4,"Al,Na,O,Si",NaAlSiO4,mp-1220943
4.3515,-2.7534566179374993,5,"Ca,H,K,O,Si",KCaSiHO4,mp-995190
4.3515000000000015,-3.167919819069999,4,"K,Nd,O,Si",K3Nd(Si2O5)3,mp-6453
4.3515999999999995,-2.553959154687499,4,"Ba,H,O,Si",BaSi(HO2)2,mp-1228645
4.3544,-3.057379607663794,6,"Ca,Na,O,Sc,Si,Zn",NaCa9ScZn9(SiO3)20,mp-720704
4.3558,-3.287817999999999,3,"Ca,O,Si",Ca2SiO4,mp-8682
4.3583,-3.132568352689039,5,"Na,O,P,Si,Zr",Na3Zr2Si2PO12,mp-2713573
4.3584,-2.873995756620846,6,"Al,Hf,Na,O,S,Si",Na3Hf3AlSi3(SO8)3,mp-2714644
4.3589,-2.508470229852827,6,"Mg,Na,O,S,Si,Y",Na6Y4Mg4SiS11O48,mp-2713632
4.359199999999999,-3.075958547614942,5,"Al,Ca,Na,O,Si",NaCaAlSi2O7,mp-686735
4.359999999999999,-2.6231631634375,5,"Al,Ca,H,O,Si",CaAl2Si(HO2)4,mp-643941
4.3608,-3.056898270833333,2,"O,Si",SiO2,mp-663422
4.3611,-2.556412844736842,5,"Al,Ca,H,O,Si",CaAl2Si2(H2O5)2,mp-699257
4.3622,-3.075091553583344,6,"Na,O,P,Sc,Si,Zr",Na7Zr2Sc2Si3(PO8)3,mp-2714899
4.362999999999999,-3.207664781,4,"Ca,Ge,O,Si",Ca3Si2GeO9,mp-1227800
4.363099999999999,-3.0823712463841,5,"Hf,Na,O,S,Si",Na10Hf8Si9(SO16)3,mp-2714028
4.3633,-2.686009803526785,4,"Mo,O,P,Si",SiMoP3O11,mp-581326
4.363300000000001,-2.668527604902549,5,"Al,H,Na,O,Si",Na2Al2Si3(HO3)4,mp-1173733
4.3642,-2.4989984077357112,6,"La,Mg,Na,O,S,Si",Na6La4Mg4SiS11O48,mp-2712635
4.367100000000001,-3.3489579875,4,"Ba,Ca,O,Si",BaCaSiO4,mp-561050
4.3683,-2.953465256411451,6,"Al,Na,O,P,Si,Y",Na7Y2Al2SiP5O24,mp-2715626
4.369099999999999,-2.401526043095239,4,"Ca,N,O,Si",CaSi2(NO)2,mp-556884
4.369400000000001,-2.843943345520689,6,"Al,C,N,Na,O,Si",Na4Al3Si3CNO13,mp-1173717
4.3705,-3.193881032381253,5,"Hf,Na,O,P,Si",Na7Hf4Si5PO24,mp-2714403
4.371700000000001,-3.433695993214285,3,"Ca,O,Si",Ca2SiO4,mp-2719342
4.372,-2.7458346243181833,4,"Ba,N,O,Si",Ba3Si6N4O9,mp-554885
4.3726,-3.136123220564039,5,"Na,O,P,Si,Zr",Na3Zr2Si2PO12,mp-686312
4.374099999999999,-3.355496477499999,3,"Ca,O,Si",Ca2SiO4,mp-674334
4.3744,-2.925580733174662,6,"Al,Br,Ga,Na,O,Si",Na4Al2GaSi3BrO12,mp-1221240
4.3747,-3.190578273205883,4,"Al,K,O,Si",K2Al2Si3O10,mp-1019744
4.375500000000001,-3.2176857076532572,4,"Ca,Na,O,Si",Na2Ca3Si3O10,mp-556679
4.3763,-3.368877553970587,3,"Ba,O,Si",Ba5Si8O21,mp-669333
4.3764,-3.143718871373306,5,"Al,K,Na,O,Si",KNa7Al8(SiO4)8,mp-1223470
4.3766,-3.424207036666666,3,"O,Si,Sr",SrSiO3,mp-18313
4.3768,-3.130452780939039,5,"Na,O,P,Si,Zr",Na3Zr2Si2PO12,mp-1221148
4.3779,-2.649297626071429,4,"Mg,Ni,O,Si",MgSiNiO4,mp-1222016
4.3789,-3.415866404999995,3,"O,Si,Sr",Sr2SiO4,mp-17825
4.3796,-3.6903508144376023,4,"Ho,Na,O,Si",NaHo9(Si3O13)2,mp-1220852
4.3797999999999995,-3.103591203784482,6,"Ca,Na,O,Sc,Si,Zn",NaCa3ScZn3(SiO3)8,mp-693463
4.38,-0.590121321440218,5,"C,H,N,O,Si",SiH23C11N3O8,mp-1195418
4.3806,-3.185218679642857,4,"Al,O,Rb,Si",RbAlSiO4,mp-6434
4.380800000000001,-3.649264392196971,3,"La,O,Si",La2Si2O7,mp-555800
4.3818,-3.573782004074075,4,"O,Sc,Si,Sr",SrSc4Si5O17,mp-1198043
4.3819,-3.053549862996817,6,"Na,O,P,Sc,Si,Y",Na7Y2Sc2SiP5O24,mp-2715598
4.3819,-2.944056344374999,4,"Ba,Br,O,Si",Ba5Si(Br3O2)2,mp-553884
4.382,-3.156822170267431,6,"Hf,Na,O,P,Si,Zr",Na7Hf2Zr2Si5PO24,mp-2714508
4.3821,-3.162365873666667,4,"Ca,O,Pb,Si",Ca2Si3PbO9,mp-504590
4.3826,-3.015123637777778,2,"O,Si",SiO2,mp-559389
4.3843,-3.097866201375,3,"Mg,O,Si",MgSiO3,mp-657338
4.3862,-2.880626328337707,6,"Al,Cl,Ga,Na,O,Si",Na8Al3Ga3Si6(ClO12)2,mp-1220864
4.388,-3.036050016816014,5,"Na,O,P,Sc,Si",Na4Sc2Si(PO6)2,mp-2714473
4.388999999999999,-3.090634864479592,5,"K,Mg,O,Si,Zn",K2Mg3Zn2(Si2O5)6,mp-1224589
4.3892,-3.116680973834154,4,"Na,O,Si,Zr",Na4Zr2(SiO4)3,mp-555472
4.3938,-2.974367648076923,4,"Be,O,Rb,Si",Rb2Be2Si2O7,mp-557027
4.395399999999999,-3.039620319999999,3,"Mg,O,Si",Mg2SiO4,mp-7982
4.3955,-2.982801668541666,4,"Ba,Li,O,Si",BaLi2SiO4,mp-558310
4.396599999999999,-3.395102296863711,4,"Lu,Na,O,Si",NaLuSiO4,mp-1210117
4.399699999999999,-3.006727164354167,4,"Ge,K,O,Si",K2Si6GeO15,mp-18460
4.400900000000001,-2.733647741190476,4,"Li,Ni,O,Si",Li2Si3NiO8,mp-766692
4.401999999999999,-3.064721921,6,"Ca,H,K,Mg,O,Si",K2CaMg5Si8(HO12)2,mp-1223917
4.4063,-3.418520634642856,3,"Ca,O,Si",Ca2SiO4,mp-758006
4.4094,-2.529153446083333,5,"Al,H,Li,O,Si",LiAlSiH2O5,mp-1267031
4.4105,-3.157718207047414,4,"Ca,Na,O,Si",Na2Ca2(SiO3)3,mp-1221806
4.411700000000001,-3.6588336467857143,4,"Cl,La,O,Si",La3Si2ClO8,mp-558985
4.4117999999999995,-3.141489018875,4,"Ca,Ga,O,Si",Ca3Ga2(SiO4)3,mp-14050
4.4142,-2.9006948921666673,3,"K,O,Si",K2Si2O5,mp-29825
4.4149,-1.6925090081557381,6,"C,Ca,H,O,S,Si",Ca3SiH30CSO25,mp-541025
4.415,-3.1315879434797482,5,"Na,O,P,Si,Zr",Na13Zr8Si9(PO16)3,mp-695515
4.4153,-3.127539058689039,5,"Na,O,P,Si,Zr",Na3Zr2Si2PO12,mp-677437
4.4190000000000005,-3.2033184914,4,"Al,Mg,O,Si",MgAl2(Si3O8)2,mp-1234153
4.419399999999999,-3.7257383626190492,4,"La,O,Si,Sr",SrLa4Si3O13,mp-1218249
4.419900000000001,-3.48750892107143,3,"La,O,Si",La2(SiO3)3,mp-756325
4.4214,-2.872417612383368,4,"Na,O,Si,Sr",Na4Sr(SiO3)3,mp-1105620
4.425499999999999,-3.020073020981718,6,"Al,Hf,Na,O,P,Si",Na7Hf2Al2Si3(PO8)3,mp-2715171
4.425800000000001,-2.878702410306513,3,"Na,O,Si",Na2Si2O5,mp-554856
4.4294,-3.455908777291666,3,"Ca,O,Si",Ca3Si2O7,mp-3932
4.4294,-3.216130917879948,4,"Ba,Na,O,Si",Ba6Na2Si4O15,mp-560889
4.4295,-2.8995427866954033,3,"Na,O,Si",Na2Si2O5,mp-16970
4.43,-3.359380628333333,4,"Ba,Mg,O,Si",Ba2MgSi2O7,mp-1191311
4.4312000000000005,-3.163439172321428,5,"Ca,F,O,S,Si",Ca10Si3S3(O12F)2,mp-1227873
4.4314,-3.6331015899733172,4,"Na,Nd,O,Si",NaNd9(Si3O13)2,mp-1221031
4.4323999999999995,-3.451624391285715,4,"O,Si,Sr,Zr",Sr7Zr(Si2O7)3,mp-555314
4.4329,-3.6602048798412703,4,"Li,O,Si,Y",LiY9(Si3O13)2,mp-1222506
4.433,-2.659619407771192,6,"H,Na,O,Si,Sn,Zr",Na8Zr3Si16Sn(H4O13)4,mp-1221041
4.4348,-3.659205958128079,4,"Na,O,Si,Y",NaY9(Si3O13)2,mp-1220819
4.4376,-3.064247861966668,3,"K,O,Si",K2Si4O9,mp-558603
4.438200000000001,-3.626559909791668,4,"B,La,O,Si",La3Si2BO10,mp-773117
4.4388,-3.61371499767262,4,"K,O,Pr,Si",KPr9(Si3O13)2,mp-1223421
4.4399999999999995,-2.8893627180833343,4,"Ga,Li,O,Si",LiGa(SiO3)2,mp-6241
4.440600000000001,-1.7297904492500011,3,"N,O,Si",Si2N2O,mp-4644
4.4414,-3.072071841071428,3,"Mg,O,Si",Mg2SiO4,mp-560321
4.4435,-2.904253888208812,4,"Na,O,Rb,Si",RbNaSi2O5,mp-557656
4.4437,-2.809347975182863,3,"Na,O,Si",Na8Si7O18,mp-29176
4.443899999999999,-3.2270451614,4,"Al,Mg,O,Si",MgAl2(Si3O8)2,mp-1233408
4.444000000000001,-3.017226562361111,2,"O,Si",SiO2,mp-555497
4.4444,-3.035673169734375,5,"K,Li,O,Si,Sn",KLi3Si12(SnO15)2,mp-6844
4.4459,-2.8965906769731813,3,"Na,O,Si",Na2Si2O5,mp-556307
4.446700000000001,-3.319122309602274,7,"Al,Ca,H,La,Mg,O,Si",CaLaMgAl2Si3HO13,mp-1195311
4.448,-3.306690864951885,4,"Mn,O,Si,Y",Y2Mn(Si3O7)4,mp-1194598
4.4483,-3.128607387665805,5,"Na,O,P,Si,Zr",Na7Zr4Si5PO24,mp-677042
4.449899999999999,-2.898503166139846,3,"Na,O,Si",Na2Si2O5,mp-556423
4.4501,-3.110927253171181,6,"Hf,Na,O,P,Si,Y",Na3YHfSi(PO6)2,mp-2715305
4.4509,-2.435039187444444,3,"Li,O,Si",Li8SiO6,mp-28549
4.4513,-3.128102243397567,4,"Al,Na,O,Si",Na2Al2Si3O10,mp-1020141
4.4523,-2.904598702069923,4,"K,Na,O,Si",KNaSi2O5,mp-558129
4.452800000000001,-3.139614204939039,5,"Na,O,P,Si,Zr",Na3Zr2Si2PO12,mp-695354
4.4529,-3.363647231666667,4,"Ba,Mg,O,Si",Ba2MgSi2O7,mp-9338
4.454,-3.629071956065477,4,"K,Nd,O,Si",KNd9(Si3O13)2,mp-1223480
4.4573,-2.89998372836207,3,"Na,O,Si",Na2Si2O5,mp-554383
4.457700000000001,-3.000597785714286,3,"Mg,O,Si",Mg2SiO4,mp-1020112
4.4582000000000015,-3.186350407807882,4,"Al,Cs,O,Si",CsAlSiO4,mp-561457
4.4604,-2.8887057679789283,3,"Cs,O,Si",Cs2Si2O5,mp-562345
4.4605,-3.422024718214281,3,"O,Si,Sr",Sr2SiO4,mp-18510
4.4605999999999995,-2.992816279729269,6,"Al,H,K,Na,O,Si",KNaAl6Si6(HO6)4,mp-1203355
4.4609,-3.214747376068965,5,"F,Mg,Na,O,Si",NaMg3Si4O11F,mp-1173560
4.4629,-3.1142905491931,6,"Hf,Na,O,P,Sc,Si",Na7Hf2Sc2Si3(PO8)3,mp-2714639
4.4655000000000005,-3.658148974642857,4,"Cl,La,O,Si",La3Si2ClO8,mp-1223085
4.466,-3.253769356285441,5,"F,Na,O,Pr,Si",Na5Pr4Si4O16F,mp-1192370
4.466799999999999,-3.186565120307881,4,"Al,Cs,O,Si",CsAlSiO4,mp-1192933
4.467700000000001,-3.374635929583332,4,"Ca,Mg,O,Si",Ca2MgSi2O7,mp-6094
4.4678,-3.169319047772374,6,"Hf,Na,O,P,Si,Zr",Na3HfZrSi2PO12,mp-2715300
4.468400000000001,-3.018547375384607,3,"O,Rb,Si",Rb6Si10O23,mp-27376
4.4704999999999995,-3.232082622199999,4,"Al,Mg,O,Si",MgAl2(Si3O8)2,mp-1233307
4.4712,-2.902866989473182,3,"Na,O,Si",Na2Si2O5,mp-3193
4.471299999999999,-3.7030844584375,3,"O,Sc,Si",Sc2SiO5,mp-1209079
4.4728,-2.540429599443436,5,"Al,Na,O,S,Si",Na2Al2Si(SO6)2,mp-2713629
4.4735,-2.973356780925927,2,"O,Si",SiO2,mp-1204070
4.4745,-2.475800012509947,5,"Al,H,Na,O,Si",Na2Al2Si3H6O13,mp-1199031
4.4792,-3.245904816287879,4,"Ca,H,O,Si",Ca6Si6H2O19,mp-1183664
4.4804,-3.778476201874999,3,"La,O,Si",La2SiO5,mp-5152
4.4835,-3.135628220911329,4,"Al,Na,O,Si",NaAlSiO4,mp-8351
4.4836,-3.726068436904762,4,"Ca,La,O,Si",CaLa4Si3O13,mp-1227220
4.484,-3.411549716,4,"Al,Ca,O,Si",CaAl2SiO6,mp-1019568
4.4866,-1.66251996355783,4,"H,Na,O,Si",Na3SiH11O9,mp-707571
4.4923,-2.780008962203657,5,"Ca,H,Na,O,Si",NaCaSiHO4,mp-634418
4.4926,-3.141901029189038,5,"Na,O,P,Si,Zr",Na3Zr2Si2PO12,mp-695119
4.4927,-3.043653121943436,5,"Hf,Na,O,S,Si",Na2Hf2Si2SO12,mp-2712524
4.4939,-3.538771304166668,4,"Ca,O,Si,Zr",Ca3ZrSi2O9,mp-15004
4.494099999999999,-3.127718875045978,6,"Ca,Na,O,Sc,Si,Zn",NaCa2ScZn2(SiO3)6,mp-534778
4.495,-2.993418575671182,6,"Hf,Na,O,P,Si,Zn",Na6Hf3ZnSi2(PO6)4,mp-2715506
4.495900000000001,-3.398849896666666,4,"Mg,O,Si,Sr",Sr2MgSi2O7,mp-6564
4.4968,-3.370344185833332,5,"Ba,Mg,O,Si,Sr",Ba3SrMg2(Si2O7)2,mp-1228059
4.497299999999999,-3.162942971428571,3,"Mg,O,Si",Mg2SiO4,mp-5391
4.4975000000000005,-3.714724967976191,4,"B,O,Si,Tb",Tb5Si2BO13,mp-1217661
4.498,-3.138085820439039,5,"Na,O,P,Si,Zr",Na3Zr2Si2PO12,mp-1133351