band_gap,formation_energy_per_atom,nelements,elements,formula,material_id
0.0,-3.316417560588236,4,"Ca,Cl,O,Si",Ca11Si4ClO18,mp-1214142
0.0,-2.9306052159375002,4,"Ca,Ni,O,Si",CaSi4NiO10,mp-1043642
0.0,-1.794291299999999,3,"Cu,O,Si",Cu2SiO4,mp-1147680
0.0,-2.863984644583334,4,"O,Si,Ti,Zn",TiZn(Si2O5)2,mp-1043408
0.0,-2.901594117941176,3,"Mg,O,Si",Mg2Si4O11,mp-1211034
0.0,-0.410094716,3,"O,Si,Zr",Zr2SiO2,mp-1207447
0.0,-3.164759742552083,4,"Ca,O,Si,Ti",CaTi(Si2O5)2,mp-1043438
0.0,-2.796853897195403,3,"Mn,O,Si",Mn(Si2O5)2,mp-1043728
0.0,-2.564409260999999,3,"Ni,O,Si",Si4NiO10,mp-1325790
0.0,-1.969664193333334,3,"O,Si,Zr",ZrSiO,mp-7915
0.0,-3.315817898076923,4,"Ba,O,Si,Ti",Ba4Ti6Si4O25,mp-1214645
0.0,-3.537716458510639,4,"La,O,Si,Ti",La4Ti9(Si2O15)2,mp-562731
0.0,-3.5375151108510643,4,"La,O,Si,Ti",La4Ti9(Si2O15)2,mp-560771
0.0,-3.541655396476189,4,"La,O,Si,Ti",La4Ti5(Si2O11)2,mp-559176
0.0,-3.206550373142856,4,"Nd,O,Si,V",Nd4V5(Si2O11)2,mp-16891
0.0,-1.9935048554761892,4,"Al,Mg,O,Si",MgAlSi4O15,mp-1222632
0.0,-1.996927320707548,5,"Al,Ca,H,O,Si",Ca2Al4Si4H18O25,mp-695251
0.0,-2.626484145862068,4,"Fe,Na,O,Si",NaFe2(SiO3)4,mp-755636
0.0,-1.7900759366666672,6,"C,Cl,Cu,O,Pb,Si",Cu4Si4Pb4C4ClO28,mp-1201527
0.0,0.160200475720043,5,"Na,O,P,Si,Zr",Na9Zr8Si4(PO6)8,mp-734340
0.0,-2.675228492763158,4,"Ca,Fe,O,Si",Ca2Fe2(SiO4)3,mp-1251946
0.0,-2.544828251044624,4,"Na,O,Si,Zr",Na2ZrSi3O11,mp-1221284
0.0,-3.229313359369732,6,"Ca,F,Na,O,Si,Ti",Na2Ca5TiSi4(O8F)2,mp-1210862
0.0,-3.074844808582376,6,"Ca,F,Na,O,Si,Ti",Na3Ca4TiSi4(O8F)2,mp-1211154
0.0,-3.151682768926834,6,"Al,B,Ca,Mn,O,Si",Ca2MnAl2Si4BO16,mp-1204491
0.0,-2.8576183436476392,7,"F,Na,Nb,O,P,Si,Ti",Na11TiNb2Si4P2(O12F)2,mp-1210688
0.0,-3.175924233508551,6,"Ca,F,Na,O,Si,Ti",Na4Ca4Ti4Si4O22F3,mp-1210426
0.0,-1.7911939757352942,4,"Be,Ca,O,Si",CaBe(SiO4)3,mp-1214917
0.0,-2.940533649529168,6,"Al,F,K,Li,O,Si",KLiAl2Si4(O5F)2,mp-1211355
0.0,-3.1262502465789472,4,"Al,Ca,O,Si",Ca2Al2(SiO4)3,mp-1227582
0.0,-3.230716288203065,6,"Ca,F,Na,O,Si,Ti",Na2Ca5TiSi4(O8F)2,mp-1221464
0.0,-3.241887587869731,6,"Ca,F,Na,O,Si,Ti",Na2Ca5TiSi4(O8F)2,mp-1210589
0.0,0.32516718211961104,5,"Na,O,P,Si,Zr",Na13Zr7Si5P7O48,mp-726223
0.0,-2.121247118928572,3,"Co,O,Si",Co2SiO4,mp-555558
0.0,-2.9396816958333343,3,"Li,O,Si",Li(SiO2)5,mp-1235571
0.0,-1.3609797130769241,6,"Al,Ba,Ho,N,O,Si",Ba2Ho2Al3Si5N11O3,mp-684935
0.0,-2.782639587708334,3,"Li,O,Si",Li(SiO2)5,mp-1236342
0.0,-0.046899509130388005,5,"Na,O,P,Si,Zr",Na13Zr7Si5P7O48,mp-725514
0.0,-2.512778453374999,4,"Be,Ni,O,Si",Be3Si3(NiO6)2,mp-1048097
0.0,-2.309793368008032,6,"Ca,Ge,Na,O,S,Si",Na10Ca4Si5Ge4S7O48,mp-2715014
0.0,-2.450713813822891,6,"Ca,Ge,Na,O,S,Si",Na14Ca6Si5Ge2S7O48,mp-2715854
0.0,-2.474026689229394,6,"Ca,Na,O,S,Si,Sn",Na14Ca6Si5Sn2S7O48,mp-2715943
0.0,-2.4506176730555542,4,"Cr,Mg,O,Si",MgCr2(SiO4)3,mp-1157835
0.0,-2.486269701578947,4,"Fe,Mg,O,Si",Mg2Fe2(SiO4)3,mp-1249492
0.0,-2.421315751750001,4,"Be,Cu,O,Si",Be3Cu2(SiO4)3,mp-1041184
0.0,-2.371065260750001,4,"Al,C,O,Si",AlSi5(CO6)2,mp-1228558
0.0,-2.359921532502005,4,"Ca,Mn,O,Si",Ca4Mn6Si5O28,mp-1227666
0.0,-0.371177769230771,6,"Al,Ba,N,O,Si,Tm",Ba2Tm2Al3Si5N11O3,mp-684728
0.0,-2.530685773055555,4,"Ca,Cr,O,Si",CaCr2(SiO4)3,mp-1250522
0.0,-2.9414425014333343,4,"B,K,O,Si",K2Si5BO12,mp-1211911
0.0,-2.560690453333333,4,"Al,Cl,O,Si",Al13Si5ClO38,mp-1198152
0.0,-2.313130181791666,4,"Ag,Be,O,Si",Be3Si3(AgO6)2,mp-1041173
0.0,-3.010597769063218,5,"Eu,F,Na,O,Si",Na5Eu4Si4O16F,mp-1192436
0.0,-2.435088941219828,5,"Mg,Mn,O,Si,Zn",Mg5Mn3Zn4(SiO6)4,mp-1222211
0.0,-3.058252558181817,4,"Al,Ca,O,Si",Ca2Al3Si3O14,mp-1214293
0.0,-3.029789802280702,3,"Li,O,Si",Li(SiO2)6,mp-1235283
0.0,-2.086081905657894,5,"Ce,Cl,N,O,Si",Ce4Si4N7ClO3,mp-686294
0.0,-3.220369612758622,3,"Ca,O,Si",Ca5(SiO3)6,mp-1227183
0.0,-2.8386810930833333,5,"Al,H,K,O,Si",KAl2Si4(HO6)2,mp-1211839
0.0,-3.304993036930555,5,"Eu,F,K,O,Si",KEu2Si4O10F,mp-561529
0.0,-2.612057944000001,5,"C,Co,Nd,O,Si",Nd4CoSi4(C2O11)2,mp-1211576
0.0,-3.200392280857142,5,"Co,Nd,O,Si,Ti",Nd4Ti3Co2(Si2O11)2,mp-1173574
0.0,-3.14026099327381,5,"Ba,Cl,Li,O,Si",Ba6Li2Si4ClO15,mp-1198788
0.0,-2.654316726990595,4,"Ca,Mn,O,Si",Ca2Mn3Si3O14,mp-1214281
0.0,-3.538746074761905,4,"Ca,O,Si,Y",Ca2Y3Si3O13,mp-732235
0.0,-2.6104455039454013,6,"B,H,Mn,Na,O,Si",NaMn2Si3BH2O11,mp-1197081
0.0,-3.033927540050001,5,"Eu,F,K,O,Si",K5Eu2Si4O13F,mp-605935
0.0,-2.885974773079711,5,"H,O,Si,Sr,Ti",Sr3TiSi4H2O13,mp-1208788
0.0,-3.309022157154762,5,"B,Mg,Nd,O,Si",Nd13Mg2Si4B8O43,mp-1196647
0.0,-3.07768283874773,5,"F,Na,O,Si,U",Na9U3Si4(O10F)2,mp-1204232
0.0,-3.07481007675,5,"Cu,Ho,Mg,O,Si",Ho2MgCu(SiO3)4,mp-1234765
0.0,-2.338519968780489,3,"Bi,O,Si",Si6Bi9O26,mp-1266421
0.0,-2.6899540693103443,5,"Al,Ca,Mn,O,Si",Ca6Mn3Al(SiO6)4,mp-1227703
0.0,-1.784481723265516,4,"Ga,Na,O,Si",Na3Ga3Si3O16,mp-1221494
0.0,-3.237675478111318,5,"Cs,K,O,Si,U",Cs2KU2(Si2O7)2,mp-862811
0.0,-2.944504914057971,5,"Li,O,Si,Sr,V",Sr2LiV2(Si2O7)2,mp-1235467
0.0,-3.012252559649123,3,"Li,O,Si",Li(SiO2)6,mp-1235382
0.0,-2.691284062666667,5,"Al,Ca,O,Si,Sr",SrCaAl4(SiO5)4,mp-1218507
0.0,-3.103148711994003,5,"Ba,Mn,O,Si,Sr",BaSr2Mn2(Si2O7)2,mp-19122
0.0,-3.095411892,5,"Ca,Cu,Ho,O,Si",CaHo2Cu(SiO3)4,mp-1234027
0.0,-2.835061419446429,4,"Al,K,O,Si",KAl(SiO3)3,mp-1223586
0.0,-3.026961454927536,5,"Li,O,Si,Sr,V",Sr2LiV2(Si2O7)2,mp-1235848
0.0,-2.209842730567887,5,"K,Na,O,Si,Sn",KNaSi5SnO16,mp-1201904
0.0,-2.898455618260869,5,"Ca,O,Si,Sr,V",Sr2CaV2(Si2O7)2,mp-1233646
0.0,-2.8818356515217403,5,"Mg,O,Si,Sr,V",Sr2MgV2(Si2O7)2,mp-1233550
0.0,-2.435677862867647,5,"C,Ca,O,Si,Y",Ca2Y2Si4C3O23,mp-1214510
0.0,-2.431246359365516,4,"Al,Na,O,Si",Na3Al3Si3O16,mp-1221304
0.0,-2.696634573756807,5,"Ca,Fe,Na,O,Si",NaCaFe(SiO3)4,mp-1221093
9.999999999976698e-05,-2.841748926002335,5,"K,Mn,O,Si,Zn",KMn2Zn3(Si2O5)6,mp-704116
9.999999999998901e-05,-2.949238702368421,3,"Mg,O,Si",Mg3(SiO3)4,mp-1210633
0.000299999999999,-2.39980577712963,4,"Ge,Li,O,Si",Li4SiGe3O10,mp-1222533
0.0005,-3.049631510198413,5,"Be,Ca,O,Si,Ti",CaTi2Be3(SiO4)3,mp-1048301
0.000699999999999,-2.508556156630951,4,"H,K,O,Si",K3Si5H2O11,mp-1212247
0.0007000000000000001,-3.077604101840731,6,"Ca,K,Mg,Na,O,Si",KNaCaMg5(SiO3)8,mp-1223552
0.0007999999999990001,-2.8447549812500013,5,"Ag,Al,O,Rb,Si",Rb11Al14Si10(AgO16)3,mp-1251571
0.0009999999999990002,-2.828062361136363,4,"Al,Mg,O,Si",MgAl2SiO7,mp-1210718
0.0012000000000000001,-1.207304139687499,4,"Ag,Cr,O,Si",CrSi(Ag3O4)2,mp-1200173
0.0014999999999990002,-1.94226102965909,4,"Ca,O,Si,U",CaU2Si2O17,mp-1199799
0.0015,-2.538204936041666,4,"Al,Li,O,Si",LiAlSiO5,mp-1198062
0.001699999999999,-2.781807325555555,3,"O,Si,W",Si2WO6,mp-1143521
0.0018000000000000002,-3.1364184021125,6,"Al,F,K,Mg,O,Si",KMg3AlSi3O11F,mp-1223599
0.0019000000000000002,-2.227311822561892,5,"B,Co,Na,O,Si",Na3CoSiBO7,mp-1651352
0.002,-2.25588240171875,4,"Ni,O,Rb,Si",Rb5Si2NiO8,mp-543079
0.0030999999999990003,-2.951337406150793,5,"Be,Mg,O,Si,Ti",MgTi2Be3(SiO4)3,mp-1047872
0.003999999999999,-3.405169280726054,7,"Ca,F,Na,O,Si,Ti,Zr",Na5Ca7Zr2Ti2Si8(O5F)6,mp-1211060
0.0041999999999990005,-2.786618272103448,5,"Ca,Fe,Na,O,Si",Na3CaFe4(SiO3)8,mp-1100794
0.004299999999999,-2.695030973888889,4,"Al,Mg,O,Si",MgAl2SiO5,mp-1213240
0.0048000000000000004,-2.933404789648168,5,"K,Mn,O,Si,Zn",KMn2Zn3(Si2O5)6,mp-1260941
0.004899999999999001,-2.9521033450000003,3,"Bi,O,Si",Si6BiO14,mp-850220
0.005200000000000001,-2.205320383095239,4,"Co,Li,O,Si",LiCo3(SiO4)2,mp-849520
0.005399999999999,-2.680281637656249,4,"Ni,O,Si,Zn",ZnSi4NiO10,mp-1043543
0.005399999999999,-0.30206264598765303,3,"Ag,O,Si",Si4Ag10O13,mp-1369374
0.0054999999999990005,-3.285514856533333,5,"Be,Er,Li,O,Si",LiEr4Be4(SiO7)2,mp-1236263
0.0055000000000000005,-2.622434257975735,4,"Na,Nb,O,Si",Na8Nb4Si16O53,mp-1221183
0.005999999999999,-1.9063401682058192,5,"As,Mn,O,Si,Zn",Mn6Zn3Si(AsO10)2,mp-1212184
0.006099999999999,-2.94712267898659,6,"F,Mn,Na,O,Si,Ti",Na3Ti2Mn3Si4(O8F)2,mp-1210891
0.006099999999999,-3.213536435833334,4,"Be,Eu,O,Si",Eu2Be2SiO7,mp-1212955
0.006099999999999,-2.183111900683024,4,"Be,Na,O,Si",NaBeSi3O8,mp-1181968
0.006399999999999,-2.406071663072134,6,"Ca,Ge,Na,O,S,Si",Na10Ca6Si3Ge2(S3O16)3,mp-2714620
0.006399999999999,-2.911845012045453,5,"Al,Ca,Mg,O,Si",Ca2MgAl2Si3O14,mp-1214260
0.006500000000000001,-1.782884988120689,5,"Ga,N,Na,O,Si",Na4Ga3Si3NO14,mp-695020
0.006500000000000001,-3.1353499296125,6,"Al,F,K,Mg,O,Si",KMg3AlSi3O11F,mp-1223563
0.007200000000000001,-3.164957372143091,8,"Ba,Ce,Fe,H,Na,O,Si,Ti",Ba2NaCe2Ti2FeSi8HO27,mp-1214950
0.007699999999999,-3.053921933020834,4,"Mg,O,Si,Ti",MgTi(Si2O5)2,mp-1043372
0.0077,-1.752807069999999,4,"C,N,O,Si",Si9C10NO18,mp-1219677
0.008,-2.473546784620535,4,"O,P,Ru,Si",SiP3RuO11,mp-562501
0.008499999999999001,-0.9678009844999991,3,"Cd,O,Si",Cd2SiO2,mp-1214149
0.008699999999999,-2.457672668165341,3,"Mn,O,Si",Mn8Si6O25,mp-1180962
0.008799999999999001,-2.900884639210526,2,"O,Si",Si6O13,mp-731864
0.008999999999999,-1.9124695295833312,3,"Fe,O,Si",FeSiO4,mp-1143147
0.0091,-3.053701853208333,4,"Be,O,Si,Ti",Ti2Be3(SiO4)3,mp-1041165
0.009300000000000001,-3.102935936,3,"Al,O,Si",Al(Si2O5)2,mp-731836
0.009799999999999,-3.08828748969024,5,"Ba,Cl,Mn,O,Si",Ba6Mn4Si12Cl3O34,mp-1228733
0.009800000000000001,-1.704174937395835,4,"Li,O,Si,Tl",LiTl6Si2O7,mp-1236190
0.009800000000000001,-2.437145052424242,4,"Fe,Li,O,Si",Li4Fe3(SiO4)3,mp-777652
0.009999999999999001,-2.10398845425,4,"Ni,O,Si,Zn",Zn3Si3(NiO6)2,mp-1257835
0.010099999999999,-2.566360615195122,4,"K,Mg,O,Si",K8Mg(SiO3)8,mp-1234313
0.010599999999999,-2.83535913025,4,"Ba,Cu,O,Si",BaCu(SiO3)2,mp-1201761
0.011599999999999002,-3.073136538231707,5,"Al,Ca,H,O,Si",Ca6Al6Si3(HO12)2,mp-1264155
0.011600000000000001,-2.400666060666667,4,"Co,Li,O,Si",Li3Co2(SiO4)2,mp-781591
0.011600000000000001,-2.264676385357142,4,"Fe,O,Sb,Si",Fe2Si2SbO9,mp-1103957
0.011800000000000001,-3.341890984583333,4,"Eu,Mg,O,Si",Eu2MgSi2O7,mp-982662
0.012100000000000001,-3.01043732483871,3,"Ca,O,Si",Ca6Si6O19,mp-1204238
0.012100000000000001,-3.236774455458994,6,"Ca,K,Li,O,Si,Ti",KLi3Ca7Ti2(Si6O19)2,mp-1197175
0.012700000000000001,-3.288430375476191,4,"Al,Ca,O,Si",Ca2Al3Si3O13,mp-1214212
0.0128,-2.794470957539684,5,"Al,O,Si,Sr,Tl",SrAl7Tl5Si5O24,mp-677001
0.0137,-2.713871325333333,5,"Al,Ca,O,Si,Sr",SrCa2Al6(SiO5)6,mp-1218728
0.013800000000000002,-2.1148324059375,3,"Ca,O,Si",Ca2Si3O11,mp-1204130
0.014299999999999001,-2.780445715125,4,"Ca,Ni,O,Si",Ca3Si3(NiO6)2,mp-1154587
0.014899999999999,-2.8205463945,3,"Cr,O,Si",Cr(Si2O5)2,mp-1142841
0.015000000000000001,-2.353888055212765,4,"Al,Ca,O,Si",Ca2Al4Si8O33,mp-1200127
0.015600000000000001,-3.237399271666665,4,"Al,Mg,O,Si",Mg3Al7(Si2O11)2,mp-1222670
0.016,-3.1945012614375,4,"K,O,Si,U",K2U(Si2O5)3,mp-1195515
0.016899999999999003,-1.669433624888888,4,"Fe,O,Sb,Si",Fe13Si2(SbO14)2,mp-1251404
0.017300000000000003,-3.164561769871795,4,"Ca,Mg,O,Si",Ca2Mg5(SiO3)8,mp-1129406
0.017599999999999002,-2.939680088275419,5,"O,P,Si,Ti,Tl",Ti3TlSi2P6O25,mp-1208411
0.0176,-2.848093756071429,3,"Mg,O,Si",Mg2(SiO3)3,mp-1203861
0.0177,-2.229018506029946,6,"Ca,Fe,Mn,O,Sb,Si",CaMn25FeSi4SbO44,mp-1227954
0.0183,-2.92187227649153,5,"Ca,K,Na,O,Si",K2Na4Ca5(Si6O17)2,mp-1181756
0.0188,-2.337529474743589,4,"Fe,Li,O,Si",LiFe2(SiO4)2,mp-850962
0.019600000000000003,-3.210040931611111,5,"Al,Be,Ca,O,Si",Ca8Be5Al3(Si9O28)2,mp-1227789
0.019899999999999002,-2.460901698163265,5,"Al,O,Sb,Si,V",Al4V13Si2(SbO14)2,mp-1044922
0.019999999999999,-2.817150538,3,"Mo,O,Si",Si4MoO10,mp-1043698
0.02,-2.362870580709987,6,"B,Fe,H,Na,O,Si",NaFe9Si6B3H3O31,mp-1210493
0.0205,-1.9048088656140352,4,"Li,O,Si,V",Li2V2Si4O11,mp-781020
0.020599999999999,-2.185477834302326,3,"Mg,O,Si",Mg5(Si4O15)2,mp-1197410
0.021199999999999,-2.6563109602763033,4,"Na,O,Si,Ti",Na2Ti(SiO4)2,mp-1202699
0.0213,-2.599684089355717,4,"Al,Na,O,Si",Na2Al2(SiO4)3,mp-1006613
0.021399999999999003,-2.303139795,4,"Co,Mg,O,Si",MgCoSiO5,mp-1267366
0.021900000000000003,-2.641641020731708,6,"As,Mg,Mn,Na,O,Si",Na2Mg5Mn11Si12(AsO25)2,mp-1202299
0.022599999999999003,-2.4715356835742712,5,"Be,Ca,Mn,O,Si",CaMnBe2Si5O17,mp-1182751
0.023299999999999002,-2.674487644724139,5,"Ba,Fe,Mn,O,Si",BaMn2FeSi2O9,mp-1193263
0.023500000000000004,-3.256705192629312,4,"Cs,O,Si,U",Cs4U3Si4O17,mp-1192638
0.023699999999999003,-1.979244067150861,3,"Mn,O,Si",Mn7SiO12,mp-1181135
0.0245,-2.490263348181818,4,"Ca,Fe,O,Si",Ca2Fe3Si3O14,mp-1214297
0.024799999999999003,-2.244267369642858,4,"Bi,Fe,O,Si",Fe2Si2BiO9,mp-1103601
0.025300000000000003,-3.190415231846982,6,"Ca,Fe,Mg,Na,O,Si",Na2Ca6Mg7Fe(SiO3)16,mp-721039
0.025399999999999003,-2.819812998,3,"O,Si,W",Si4WO10,mp-1043760
0.026399999999999,-3.533217721607143,4,"Al,Ce,O,Si",Ce2AlSi2O9,mp-1202030
0.026499999999999004,0.366862858660223,6,"Ca,K,Na,O,Si,Ti",K2NaCa2TiSi7O20,mp-728519
0.026899999999999,-2.712969184166668,5,"Al,Ca,O,Si,Sr",SrCa3Al8(SiO5)8,mp-1218635
0.027299999999999002,-1.68466900587,5,"Al,K,O,Si,W",K3Al3Si3(WO3)4,mp-1212431
0.027299999999999002,-2.564623444463415,4,"K,Mg,O,Si",K8Mg(SiO3)8,mp-1234312
0.0279,-1.7188967572619052,3,"Fe,O,Si",Fe4SiO9,mp-1225408
0.028200000000000003,-2.828711825909089,4,"Al,Mg,O,Si",MgAl2SiO7,mp-1210628
0.028700000000000003,-2.171296593669999,4,"Al,K,O,Si",K3Al3Si3O16,mp-1181028
0.028799999999999003,-2.418985317894736,4,"Al,Ca,O,Si",CaAl2Si3O13,mp-1202125
0.029399999999998,-2.521475695,4,"Al,Mg,O,Si",Mg6AlSiO8,mp-1031540
0.029599999999999002,-2.200355476789928,6,"Ge,Na,O,S,Si,Zn",Na4ZnSi3Ge3(SO8)3,mp-2713596
0.0296,-2.584130209469696,4,"B,Ca,O,Si",Ca2SiB5O14,mp-867937
0.030199999999999002,-2.855462928161291,2,"O,Si",Si48O107,mp-1221354
0.030499999999999004,-2.588080817586207,4,"Al,Ca,O,Si",CaAl2(Si3O10)2,mp-1197130
0.031399999999999005,-3.118285181346153,4,"Ce,Cl,O,Si",Ce3SiCl5O4,mp-1229323
0.0317,-2.269639876944444,4,"Fe,Li,O,Si",Li2Fe2Si2O9,mp-1262173
0.0317,-2.240506360425531,3,"Ca,O,Si",Ca9(Si3O16)2,mp-1182427
0.032,-2.079500198749999,5,"Cr,F,H,O,Si",CrSiH8(O2F3)2,mp-1196749
0.0322,-2.656306745937499,4,"Ca,O,Si,W",Ca4Si6W3O19,mp-1214557
0.032599999999999005,-2.469183668146552,3,"Mn,O,Si",Mn7Si3O14,mp-1222225
0.032799999999999004,-2.2514411136159,6,"In,Na,O,S,Si,Zn",Na8Zn2In2Si3(SO8)3,mp-2714934
0.032799999999999004,-0.9082231757777771,4,"Cu,O,Sb,Si",Cu13Si2(SbO14)2,mp-1244564
0.032799999999999004,-2.614034141609195,4,"Li,Mn,O,Si",LiMnSiO4,mp-780325
0.033100000000000004,-2.828578526129033,3,"Mg,O,Si",Mg10(SiO6)3,mp-1180416
0.0337,-1.7498962728260872,4,"Mg,O,Si,U",MgU2(SiO9)2,mp-1191161
0.0342,-2.45998002931274,6,"Ca,Na,Nb,O,S,Si",Na6Ca8Nb4Si3(S5O24)3,mp-2714329
0.035699999999999,-2.696745117917772,4,"Li,Mn,O,Si",Li3MnSi2O7,mp-780089
0.0357,-1.610056807413793,5,"Ca,H,O,Si,V",CaVSi4H12O11,mp-1214832
0.0359,-2.690525554375,3,"Ca,O,Si",Ca2SiO5,mp-1227682
0.036199999999999004,-2.256621879484969,5,"B,Co,Na,O,Si",Na3CoSiBO7,mp-756360
0.037200000000000004,-2.036328200681818,3,"Mg,O,Si",Mg4Si6O23,mp-1182691
0.0378,-2.827308839935242,4,"Na,O,Si,Ti",Na16Ti7(SiO5)8,mp-1222203
0.037899999999999004,-2.290800243958333,4,"Cu,Li,O,Si",Li2CuSiO4,mp-765955
0.039700000000000006,-2.8842841553042593,4,"Ce,Na,O,Si",Na4Ce2(Si4O11)3,mp-1200345
0.04020000000000001,-2.402701444,4,"Co,Li,O,Si",Li3Co2(SiO4)2,mp-758102
0.040499999999999,-2.758391591249999,4,"Hf,Mg,O,Si",HfMg14SiO16,mp-1034573
0.040699999999999,-2.821535314250001,4,"Co,Mg,O,Si",MgCo(SiO3)2,mp-1154753
0.0413,-1.989917470612746,5,"Ca,Ge,O,S,Si",CaSiGe3S5O24,mp-2712880
0.041399999999999,-2.9955398639062523,4,"Co,Eu,O,Si",Eu2CoSi3O10,mp-1199416
0.0422,-2.488644065786208,3,"Mn,O,Si",MnSiO3,mp-647680
0.042899999999999,-2.101862111965075,4,"Na,O,Si,Ti",NaTi2SiO9,mp-1180462
0.043099999999999,-1.7313122286458351,4,"Li,O,Si,Tl",LiTl6Si2O7,mp-1235978
0.043300000000000005,-2.984761698958333,4,"Eu,Li,O,Si",Li2EuSiO4,mp-14629
0.043599999999999,-2.1938314875,3,"Fe,O,Si",Fe25Si11O48,mp-764962
0.044399999999999,-3.108028392350428,5,"Al,Fe,Mg,O,Si",Mg2Al16Fe6Si20O73,mp-1223304
0.044799999999999,-2.587061672853448,5,"Ca,Fe,Na,O,Si",Na3CaFe4(SiO3)8,mp-698686
0.044799999999999,-2.6788259741666662,4,"Ba,Co,O,Si",BaCo2Si2O7,mp-19203
0.044999999999999006,-2.927926188768116,5,"Ca,Ga,Nb,O,Si",Ca9Nb2Ga10(SiO7)6,mp-1228104
0.0451,-2.182703912368421,2,"O,Si",Si6O13,mp-673849
0.0451,-2.77458720664838,4,"Li,Mn,O,Si",Li5Mn(SiO3)4,mp-774496
0.046599999999999,-3.298440050579709,4,"Li,O,Sc,Si",LiSc4(Si2O7)2,mp-1235717
0.0478,-2.5403169678333333,4,"Al,Fe,O,Si",Al2Fe(SiO5)2,mp-1198093
0.048,-2.455395397267905,3,"Mn,O,Si",Mn8Si6O25,mp-1202320
0.048299999999999,-3.046442485595238,4,"Li,O,Si,Ti",LiTiSiO4,mp-1176566
0.048499999999999,-2.350455326168102,4,"Fe,Mn,O,Si",Mn2Fe3(SiO4)3,mp-555470
0.048699999999999,-2.696601073000001,3,"Mg,O,Si",Mg3Si4O13,mp-1222180
0.049400000000000006,-3.543359450795454,3,"Ce,O,Si",Ce2Si2O7,mp-672208
0.050999999999999004,-2.283610938697916,4,"B,Mg,O,Si",Mg6SiBO8,mp-1030828
0.0514,-1.705208562448978,5,"O,Sb,Si,W,Y",Y4Si2Sb2W13O28,mp-1044904
0.0514,-2.5381860275,3,"O,Si,Sr",SrSiO3,mp-1173151
0.05210000000000001,-2.353067031474358,5,"B,Co,Li,O,Si",Li3CoSiBO7,mp-771167
0.052699999999999005,-2.325702120069997,6,"In,Na,Nb,O,S,Si",Na10NbIn7Si6(SO8)6,mp-2713351
0.05279999999999901,-1.360400835294117,5,"Al,Ca,O,Si,W",CaAl2Si2(WO2)4,mp-1215045
0.05399999999999901,-2.839833347663065,5,"Ag,Al,Na,O,Si",Na8Al11Si13(AgO16)3,mp-690919
0.054999999999999,-3.153908374729885,4,"Na,Nd,O,Si",Na5Nd4Si4O17,mp-1193130
0.055200000000000006,-2.337763281109914,4,"Be,Na,O,Si",Na2Be3Si3O8,mp-1221869
0.055200000000000006,-1.045999415253694,5,"Na,O,Si,V,W",Na2VSi(W2O9)6,mp-863300
0.055299999999999,-2.751633334259259,4,"Fe,Li,O,Si",Li2FeSi4O11,mp-758998
0.055400000000000005,-1.803265325416667,3,"Ba,O,Si",BaSi2O9,mp-1182475
0.05569999999999901,-2.663380483928571,5,"Ca,H,O,Si,U",CaU2Si2(HO3)4,mp-1215077
0.056,-3.139905829420289,4,"Mg,O,Si,Ti",Mg3Ti2(Si2O7)2,mp-1250045
0.05620000000000001,-2.274059070644397,5,"In,Na,O,S,Si",Na6In4Si3(SO8)3,mp-2716126
0.056599999999999005,-1.598687663999999,3,"Ca,O,Si",Ca3SiO,mp-1205330
0.05689999999999901,-3.337149815000003,3,"Eu,O,Si",Eu2SiO4,mp-504653
0.0577,-1.149518077777778,4,"Fe,O,Sb,Si",Fe13Si2(SbO14)2,mp-1333616
0.058100000000000006,-3.083843169701492,4,"Ca,F,O,Si",Ca13Si10(O17F5)2,mp-1182805
0.058300000000000005,-2.282848724377647,6,"Ge,Mg,Na,O,S,Si",Na4MgSi3Ge3(SO8)3,mp-2713278
0.0585,-2.819723735781249,4,"Bi,Mg,O,Si",Mg30SiBiO32,mp-1039851
0.059299999999999006,-2.397745811444444,4,"Al,Ca,O,Si",Ca2Al4Si8O31,mp-1228237
0.059300000000000005,-2.336665016018758,5,"K,Na,O,Si,Tb",KNa2Tb(SiO3)8,mp-1198876
0.0594,-2.244686795,3,"Al,O,Si",Al2Si2O9,mp-1194176
0.06010000000000001,-2.700920024392633,5,"H,Na,O,Si,V",Na3VSi4(HO6)2,mp-743949
0.060899999999999004,-2.442774863934572,4,"Cl,Mn,O,Si",Mn8Si6ClO24,mp-1212175
0.061099999999999,-2.384889331666667,4,"Co,Li,O,Si",Li3Co2(SiO4)2,mp-777651
0.061399999999999004,-1.7476833987977631,5,"Al,Cl,Na,O,Si",Na4Al2Si6ClO24,mp-720655
0.062999999999998,-2.612638478333333,4,"Mg,O,Si,Ti",Mg6TiSiO8,mp-1031157
0.06369999999999901,-2.827900195810982,4,"Li,Mn,O,Si",Li2MnSi4O11,mp-757188
0.06380000000000001,-3.434746769833333,5,"Dy,Eu,O,Pr,Si",PrEuDySiO6,mp-1519673
0.064099999999999,-2.8896945548809523,4,"Al,O,Pb,Si",Al3Si3Pb2O13,mp-1200284
0.0644,-0.375002327619047,4,"Fe,Li,O,Si",Li2FeSi3O8,mp-1347683
0.0645,-2.339410712083333,4,"Cu,Li,O,Si",Li2CuSiO4,mp-752606
0.0651,-3.340408718985506,4,"Ca,O,Si,Ti",Ca3Ti2(Si2O7)2,mp-1267920
0.06529999999999901,-2.101393264999998,3,"O,Si,U",USiO7,mp-1178876
0.06580000000000001,-2.370457056873564,6,"Ca,In,Na,O,S,Si",Na3CaInSi(SO6)2,mp-2712755
0.065899999999999,-2.02162635328125,5,"Al,C,N,O,Si",Al2Si2CNO10,mp-1198111
0.06630000000000001,-3.266147397187501,4,"Ca,O,Si,Y",CaYSiO5,mp-1213949
0.0665,-2.6834657355,4,"Cr,O,Si,Zn",ZnCr(SiO3)2,mp-1248912
0.0673,-2.944825122887931,4,"Na,O,Si,V",NaV(SiO3)2,mp-19287
0.06820000000000001,-2.5757864303333333,4,"Al,Ca,O,Si",CaAl2(SiO5)2,mp-1182812
0.068899999999999,-2.317088494447421,6,"Ca,Ge,Na,O,S,Si",Na6Ca6SiGe2S11O48,mp-2712570
0.0689,-2.742382492325582,4,"Ca,Cu,O,Si",Ca3Cu5Si9O26,mp-722867
0.0693,-3.388590142458334,4,"Ca,O,Si,Ti",Ca3Ti2(SiO4)3,mp-1154470