band_gap,formation_energy_per_atom,nelements,elements,formula,material_id
0.5940999999999991,-2.244869817608696,5,"Ca,Cu,H,O,Si",Ca2Cu2Si3(HO3)4,mp-696360
0.5954,-3.158942078684211,4,"Al,Ca,O,Si",Ca2Al(SiO3)4,mp-1214160
0.596299999999999,-1.9756195903125002,4,"Li,Ni,O,Si",Li9Si2Ni5O16,mp-859799
0.5963,-2.5842578891379313,4,"Al,Ca,O,Si",CaAl2(Si3O10)2,mp-1202111
0.5973,-2.675746366171874,4,"Mg,O,Rb,Si",RbMg14SiO16,mp-1034699
0.5981999999999991,-3.5388778815,6,"Al,Ca,Cr,O,Si,Y",Ca3Y9Al18CrSiO48,mp-720216
0.5991000000000001,-3.249094270444444,5,"Al,Be,Ca,O,Si",Ca4Be2Al2Si9O28,mp-1214270
0.5992000000000001,-2.7020103963386113,6,"Ba,K,Na,O,Si,Ti",K2BaNa2Ti4(SiO4)8,mp-1200158
0.6040999999999991,-2.772416322101562,4,"K,Mg,O,Si",KMg14SiO16,mp-1033928
0.605699999999999,-2.083260607083333,3,"Fe,O,Si",FeSiO4,mp-1191756
0.6062999999999991,-2.9414043654347832,5,"Mg,O,Si,Sr,V",Sr2MgV2(Si2O7)2,mp-1233096
0.607499999999999,-1.764212550416665,4,"Ag,O,Si,Zn",ZnSi(AgO2)2,mp-9359
0.6076,-2.748069680843818,6,"Na,Nb,O,S,Si,Y",Na6Y6Nb2Si5S7O48,mp-2716001
0.6079,-2.3810869776460732,6,"In,Na,O,S,Si,Y",Na2Y2In2SiS5O24,mp-2714359
0.6088,-2.080134030122925,6,"Ge,Na,O,S,Si,Zn",Na2ZnSi2Ge3(SO6)4,mp-2712603
0.608899999999999,-1.887409925896226,5,"Al,Ba,H,O,Si",Ba2Al4Si6H14O27,mp-691076
0.609499999999999,-1.775194791153846,5,"Cu,F,H,O,Si",CuSiH12(OF)6,mp-721943
0.6122000000000001,-3.060069858070174,4,"Al,Ca,O,Si",CaAl2(Si8O19)2,mp-1229169
0.612699999999999,-2.854952701375,4,"Ba,Cu,O,Si",BaCu(SiO3)2,mp-1182662
0.6163000000000001,-3.103055708974359,4,"Li,O,Si,Ti",LiTiSi3O8,mp-766251
0.6163000000000001,-2.74210431769237,6,"Na,Nb,O,S,Sc,Si",Na2Sc2Nb2Si3(SO8)3,mp-2713905
0.6165,-2.412938923999998,3,"Mo,O,Si",Si2MoO7,mp-1143109
0.6186,-2.419738111440887,4,"Cu,Na,O,Si",Na2Cu3(SiO3)4,mp-649944
0.618999999999999,-3.173999447878787,4,"O,Pr,Si,Y",PrYSi2O7,mp-680387
0.6212,-2.9433119635000002,5,"B,Ba,N,O,Si",Ba7SiB3NO13,mp-1256464
0.6219,-2.552792156428572,3,"O,Si,V",V2SiO4,mp-754234
0.6242000000000001,-3.0010550175,5,"B,N,O,Si,Sr",Sr7SiB3NO13,mp-1256705
0.6245,-2.586342292982456,4,"Cu,Li,O,Si",Li2Cu2Si4O11,mp-766023
0.6248,-2.5325001323289893,6,"Mg,Na,Nb,O,S,Si",Na7Mg3NbSi3(SO8)3,mp-2714181
0.625,-2.662337041439395,4,"Cu,Li,O,Si",Li2Cu2Si5O13,mp-757404
0.6257,-2.773129960821554,6,"Na,Nb,O,P,Si,Ti",Na11TiNb2Si4(PO13)2,mp-1221506
0.626599999999999,-2.750263416366047,4,"Na,O,Si,Zr",Na2Zr(SiO4)2,mp-1221466
0.6268,-1.657273089999999,3,"O,Si,Th",Th(SiO)2,mp-1208594
0.6284000000000001,-2.4709514475,3,"O,Si,W",Si2WO7,mp-1379381
0.631,-2.317959178088235,4,"Al,Ca,O,Si",CaAl2(SiO6)2,mp-1182213
0.6312999999999991,-2.750451473351562,4,"K,Mg,O,Si",KMg14SiO16,mp-1033911
0.633799999999999,-0.714241925238094,4,"C,N,O,Si",Si3C10NO7,mp-1205275
0.6341999999999991,-3.146532734999998,3,"Ca,O,Si",Ca4Si3O11,mp-1202749
0.6362000000000001,-2.1208035494747772,6,"Na,O,S,Si,Sn,Zn",Na2ZnSi2Sn3(SO6)4,mp-2712815
0.6373000000000001,-1.750713328055555,3,"Ag,O,Si",SiAg2O3,mp-28195
0.6376000000000001,-2.1295867759722222,4,"Li,Ni,O,Si",Li7Si2(NiO4)3,mp-1642504
0.6391999999999991,-1.7868557933333342,4,"Bi,O,Sb,Si",Si2Bi13(SbO14)2,mp-1248784
0.6392999999999991,-1.3780140538596481,4,"Ag,Ca,O,Si",CaSi2(AgO)8,mp-1234407
0.6395000000000001,-2.866174638375001,4,"Ba,Cu,O,Si",BaCu(SiO3)2,mp-1197716
0.641999999999999,-2.77519211745098,4,"Cu,Li,O,Si",Li2Cu(Si2O5)2,mp-1178070
0.6424999999999991,-2.8014739680603453,4,"Mg,Mn,O,Si",Mg14MnSiO16,mp-1036087
0.642699999999999,-2.860526129418103,4,"Mg,Na,O,Si",NaMg14SiO16,mp-1034646
0.642799999999999,-3.1570140675,4,"Cl,Eu,O,Si",Eu2SiCl2O3,mp-555322
0.6435999999999991,-2.659573449126984,5,"Cu,Li,Mg,O,Si",Li2MgCu2(SiO3)4,mp-773087
0.6455000000000001,-2.362510824761903,4,"Fe,Li,O,Si",LiFe3(SiO4)2,mp-780681
0.6494000000000001,-2.527609586231883,4,"Ag,Mg,O,Si",Mg3Si4(AgO7)2,mp-1260237
0.6505999999999991,-2.161102249,3,"Cd,O,Si",CdSiO3,mp-1016879
0.651899999999999,-2.582707775957037,6,"Mg,Na,Nb,O,S,Si",Na42Mg16Nb8Si21(S5O48)3,mp-2715792
0.6536999999999991,-2.847139740668103,4,"Mg,Na,O,Si",NaMg14SiO16,mp-1034659
0.6549,-2.554064812041742,4,"Al,Mn,O,Si",Mn3Al(SiO4)3,mp-1154487
0.6553999999999991,-0.844746218888888,2,"O,Si",SiO2,mp-640917
0.6566000000000001,-2.887278760729166,4,"Li,Mg,O,Si",LiMg14SiO16,mp-1035527
0.657199999999999,-2.239827272266407,5,"Cu,H,Na,O,Si",Na2Cu2Si5(H3O8)2,mp-1221671
0.6575000000000001,-2.8314897413392863,4,"O,Rb,Si,U",Rb2USi2O9,mp-1204174
0.658199999999999,-2.713140664857143,5,"C,Mg,Nd,O,Si",Nd4MgSi4(C2O11)2,mp-1211102
0.6586000000000001,-2.330942323749999,4,"Cu,Li,O,Si",Li2CuSiO4,mp-758715
0.658799999999999,-2.817839332142857,3,"O,Si,V",V4Si4O13,mp-766894
0.6588,-2.86375621516129,4,"Cu,O,Rb,Si",Rb2Cu2Si8O19,mp-14885
0.6617000000000001,-2.452905102283059,6,"Ca,Na,O,S,Si,Ta",Na6Ca16Ta8Si3(S11O48)3,mp-2714203
0.662299999999999,-3.026163265374999,5,"Eu,Ga,O,Rb,Si",Rb2EuGa(SiO3)4,mp-1203461
0.6636000000000001,-2.607268916109475,6,"Ca,Na,Nb,O,S,Si",Na7Ca3NbSi3(SO8)3,mp-2714097
0.666299999999998,-2.87190520390625,4,"Ba,Mg,O,Si",BaMg30SiO32,mp-1039914
0.6673,-3.044453803714913,4,"Al,K,O,Si",KAl3(SiO4)3,mp-1223770
0.667999999999999,-2.326789946956075,6,"In,Na,O,S,Si,Y",Na2Y4In4SiS11O48,mp-2714095
0.6686999999999991,-2.657382338597775,6,"In,Na,O,S,Si,Ta",Na10Ta4In4Si9(SO16)3,mp-2714202
0.6695000000000001,-2.8973788410416663,4,"Li,Mg,O,Si",LiMg14SiO16,mp-1035536
0.6698000000000001,-2.459160537753622,4,"Cr,Li,O,Si",Li10Cr(SiO5)2,mp-767255
0.670199999999999,-2.099927861170362,6,"Ca,Ge,Na,O,S,Si",Na2Ca2Si3Ge6(S3O16)3,mp-2716503
0.6702,-3.352818315925288,7,"Ca,F,Na,Nb,O,Si,Zr",Na2Ca4ZrNbSi4(O8F)2,mp-1210786
0.6721,-1.957990564202586,5,"H,Mn,O,Si,Zn",MnZn2Si(HO3)2,mp-745154
0.6733,-1.2817707551851831,3,"Ag,O,Si",Si(AgO)4,mp-556164
0.679999999999999,-2.361615863333333,4,"Co,Li,O,Si",Li3Co2(SiO4)2,mp-756892
0.6827999999999991,-2.567689882023809,4,"Cu,Li,O,Si",Li4CuSi2O7,mp-756422
0.683099999999999,-2.537777658125,4,"Cu,Mg,O,Si",Mg6CuSiO8,mp-1032102
0.6833,-2.499867283939052,6,"Ge,Na,O,S,Si,Y",Na4Y2Si3Ge2(SO8)3,mp-2713594
0.6834,-3.091351737458621,4,"Cs,Eu,O,Si",Cs3Eu(Si2O5)3,mp-1229260
0.6848000000000001,-2.7544768221109033,6,"Ba,F,Mn,Na,O,Si",Ba3NaMn4Si6O22F,mp-1197574
0.6856,-2.9869228475362313,5,"Ba,Li,O,Si,V",Ba2LiV2(Si2O7)2,mp-1235397
0.6856999999999991,-2.468131528371279,6,"Mg,Na,O,S,Si,Ti",Na10Mg6Ti2Si3(S3O16)3,mp-2714795
0.6871,-2.435561531789409,6,"Mg,Na,Nb,O,S,Si",Na2Mg4Nb4Si3(S3O16)3,mp-2716350
0.6887,-2.077810124583333,3,"Fe,O,Si",FeSiO4,mp-1192103
0.6890000000000001,-2.280953402866379,4,"Mn,O,Si,Zn",MnZnSiO5,mp-1252337
0.6894,-3.033790610144927,5,"Li,O,Si,Sr,V",Sr2LiV2(Si2O7)2,mp-1235062
0.6905,-2.431294851078124,4,"K,Mg,O,Si",KMg6SiO8,mp-1031242
0.6909999999999991,-2.90680098234375,4,"Cr,Mg,O,Si",Mg30CrSiO32,mp-1039875
0.693099999999999,-2.9241915350000003,5,"Mg,O,Si,Sr,V",Sr2MgV2(Si2O7)2,mp-1233416
0.693499999999999,-2.893796438763546,4,"Mg,Mn,O,Si",MgMn4(Si4O11)2,mp-1234076
0.6936,-2.405621837359476,6,"Mg,Na,O,S,Si,Sn",Na14Mg6Si5Sn2S7O48,mp-2713068
0.6955,-2.45949133731884,4,"Cr,Li,O,Si",Li10Cr(SiO5)2,mp-1263657
0.6958000000000001,-0.15272996478261,5,"C,Cl,N,O,Si",Si6C8N2Cl4O3,mp-728532
0.696099999999999,-2.353710264166666,5,"Ca,H,O,Si,V",CaVSi4(H2O5)3,mp-1201439
0.698199999999999,-2.49814735102343,5,"B,Cr,Na,O,Si",Na3CrSiBO7,mp-771269
0.6989999999999991,-2.839338352477831,4,"Mg,Mn,O,Si",MgMn4(Si4O11)2,mp-2220402
0.6999000000000001,-2.5833279840000003,4,"F,O,Si,Sr",SrSi(OF3)2,mp-728573
0.7001000000000001,-2.861796050948276,4,"Ca,Mn,O,Si",CaMnSi2O7,mp-1260708
0.7026999999999991,-2.780866783124999,4,"Co,Mg,O,Si",Mg14CoSiO16,mp-1035303
0.7031000000000001,-2.5771062312499993,3,"Fe,O,Si",FeSiO3,mp-1199561
0.7038000000000001,-1.708578562040815,3,"Fe,O,Si",Fe39Si3O56,mp-1178317
0.7039999999999991,-2.305760778606323,6,"Ge,Mg,Na,O,S,Si",Na10Mg4Si5Ge4S7O48,mp-2714927
0.7041000000000001,-2.3968598675,4,"Cu,O,Rb,Si",Rb4CuSi2O7,mp-557618
0.7060999999999991,-2.735628305303278,6,"La,Na,Nb,O,S,Si",Na6La6Nb2Si5S7O48,mp-2715914
0.706199999999999,-2.175518479335888,6,"Ge,Mg,Na,O,S,Si",Na2MgSi2Ge3(SO6)4,mp-2712797
0.7071000000000001,-2.431857892591365,6,"Hf,In,Na,O,S,Si",Na5HfIn3Si3(SO8)3,mp-2713170
0.7093,-2.339467914947916,4,"B,Mg,O,Si",Mg6SiBO8,mp-1030869
0.7095,-3.255498799193548,3,"Ca,O,Si",Ca6Si6O19,mp-1202163
0.7104,-2.475210009038462,3,"O,Pu,Si",Pu2SiO10,mp-725556
0.7106999999999991,-2.715735666956522,4,"Mg,O,Si,W",Mg3Si4(WO7)2,mp-1263350
0.7117999999999991,-2.260197070999999,4,"Li,Ni,O,Si",Li3SiNiO5,mp-754230
0.7138000000000001,-1.124494541083332,3,"Ag,O,Si",SiAg5O4,mp-1205049
0.7146,-2.219581287136814,6,"Ge,Na,O,S,Si,Sn",Na2Si3Sn2Ge2(SO8)3,mp-2713815
0.7162000000000001,-2.860677337499999,4,"Ca,Mg,O,Si",CaMg14SiO16,mp-1036298
0.7167999999999991,-2.4869566552656,6,"Ca,Na,Nb,O,S,Si",Na2Ca4Nb4Si3(S3O16)3,mp-2716422
0.7206,-3.4357023320967732,4,"Ca,F,O,Si",Ca9Si4O17F,mp-1227767
0.7210000000000001,-2.660944625086207,4,"Mg,Na,O,Si",NaMg6SiO8,mp-1030808
0.723,-2.567999398611111,3,"Fe,O,Si",Fe(SiO3)2,mp-1203128
0.7239000000000001,-2.508658239166665,4,"Co,Li,O,Si",Li3Co2Si3O10,mp-758811
0.7258999999999991,-2.019283939242423,4,"Co,Li,O,Si",Li2Co2SiO6,mp-752511
0.7267,-1.9847256382317022,7,"Al,Ca,H,Mn,O,P,Si",CaMnAl4SiP3(HO4)5,mp-1182654
0.7275,-2.594842419610103,6,"In,Na,O,S,Si,Ta",Na2TaInSi2SO12,mp-2712672
0.7289000000000001,-2.292199411190477,4,"Co,Li,O,Si",LiCoSiO4,mp-758607
0.7307,-2.698132041666666,4,"Ag,Ca,O,Si",Ca3Si4(AgO7)2,mp-1248597
0.7318,-2.873800718893228,4,"B,Mg,O,Si",Mg30SiBO32,mp-1039876
0.732499999999999,-2.882556713437499,4,"Mg,Nb,O,Si",Mg30NbSiO32,mp-1039854
0.7329999999999981,-2.7613420775,4,"Fe,Mg,O,Si",Mg14FeSiO16,mp-1035599
0.734,-2.190525891666666,3,"Cr,O,Si",CrSiO4,mp-1143241
0.7341000000000001,-2.146714630666666,5,"Al,Ca,O,Si,W",CaAl2Si2(WO4)2,mp-1215070
0.734399999999999,-2.036607097789408,6,"Na,O,S,Si,Sn,Zn",Na2Zn2Si3Sn6(S3O16)3,mp-2716371
0.734799999999999,-2.127932803908457,6,"Mg,Na,O,S,Si,Sn",Na2Mg4SiSn4S11O48,mp-2714233
0.7348999999999991,-2.306054069761906,4,"Co,Li,O,Si",LiCoSiO4,mp-759212
0.7370999999999991,-2.391958142763888,5,"Fe,K,Mg,O,Si",K2MgFe(SiO3)8,mp-1224578
0.737599999999999,-2.8848160938322893,3,"Cs,O,Si",CsSi3O7,mp-1202483
0.7384000000000001,-2.351619353593749,4,"Mg,O,Rb,Si",RbMg6SiO8,mp-1030853
0.7394000000000001,-2.73495010164855,5,"Al,H,Li,O,Si",Li2Al2Si4HO14,mp-1190535
0.7411000000000001,-2.014672300053481,6,"Na,O,S,Si,Sn,Zn",Na2Zn2SiSn2S5O24,mp-2714383
0.7422000000000001,-2.168825209117646,5,"Co,Mg,O,Si,Zn",MgZn2Co2(SiO5)2,mp-2229691
0.7426,-3.265610745555555,3,"Ca,O,Si",Ca7(Si2O5)8,mp-1203093
0.7432000000000001,-2.8909650374687503,4,"K,O,Si,Zr",K2ZrSi3O10,mp-729333
0.7457,-2.7543535939583332,4,"Li,Mg,O,Si",LiMg6SiO8,mp-1030903
0.746,-2.974837106935484,5,"Ca,Cl,Mg,O,Si",Ca8MgSi4(ClO8)2,mp-686598
0.7473000000000001,-2.786439479501438,4,"Li,Mn,O,Si",LiMn(SiO3)2,mp-757422
0.748,-2.731768842692369,6,"Na,Nb,O,S,Si,Y",Na2Y2Nb2Si3(SO8)3,mp-2713501
0.748499999999999,-2.5945297708829953,6,"Ca,Ge,Na,O,P,Si",Na7Ca2SiGe2P5O24,mp-2715653
0.748599999999999,-2.512130630693436,6,"Ge,Na,O,S,Sc,Si",Na4Sc2Si3Ge2(SO8)3,mp-2713721
0.750799999999999,-2.421144966835888,6,"La,Na,O,S,Si,Sn",NaLaSiSn(SO6)2,mp-2712778
0.7509999999999991,-2.388325259144397,6,"Mg,Na,O,S,Si,Sn",Na6Mg2Si3Sn2(SO8)3,mp-2716259
0.751899999999999,-1.989312505503695,6,"Ge,Na,O,S,Si,Zn",Na2Zn2Si3Ge6(S3O16)3,mp-2716538
0.754999999999999,-2.950830839358974,4,"Ca,Mg,O,Si",Ca2Mg5(SiO3)8,mp-1237404
0.7552000000000001,-2.868689805622913,4,"Cs,Cu,O,Si",Cs2Cu2Si8O19,mp-556177
0.756999999999999,-2.074869163571429,3,"Cr,O,Si",CrSiO5,mp-1046697
0.7576,-2.632374902796934,5,"Al,Cl,Na,O,Si",Na4Al3Si3ClO16,mp-1173771
0.7593999999999991,-2.125932824,3,"O,Si,Sn",SiSnO3,mp-978493
0.7595000000000001,-2.920721707536232,4,"Cr,Li,O,Si",LiCr(Si2O5)3,mp-850539
0.7597,-2.5294166753933682,6,"Mg,Na,Nb,O,S,Si",Na6Mg4Nb4Si5S7O48,mp-2715972
0.7606,-2.965044945362319,5,"Li,O,Si,Sr,V",Sr2LiV2(Si2O7)2,mp-1235454
0.7609,-3.256477213387097,3,"Ca,O,Si",Ca6Si6O19,mp-1196268
0.7674000000000001,-2.626933211874999,4,"Mg,O,Si,Y",YMg6SiO8,mp-1032906
0.7677,-2.6396955360573813,5,"H,Mn,O,Si,V",Mn6VSi5HO19,mp-729576
0.7693000000000001,-2.348778340269608,5,"Mg,Nb,O,S,Si",Mg2Nb2SiS5O24,mp-2713053
0.7695999999999981,-2.515497496875,4,"Mg,Ni,O,Si",Mg6SiNiO8,mp-1031808
0.7714000000000001,-2.58080305050418,4,"B,Na,O,Si",NaSi2BO7,mp-1191190
0.771799999999999,-2.255842661969944,6,"Mg,Na,O,S,Si,Sn",Na6Mg2Si5Sn6S7O48,mp-2715842
0.7725000000000001,-2.88335443015625,4,"Mg,Nb,O,Si",Mg30NbSiO32,mp-1039821
0.7746000000000001,-2.047915725123097,6,"Na,Nb,O,S,Si,Zn",Na18Nb4Zn20Si3(S11O48)3,mp-2713299
0.7746999999999991,-2.329405820753758,6,"Ge,Mg,Na,O,S,Si",Na10Mg3Si6Ge5(SO8)6,mp-2716567
0.7746999999999991,-2.486225547761814,6,"Ca,Na,Nb,O,S,Si",NaCaNbSi(SO6)2,mp-2712582
0.7781,-2.879479472477832,4,"Mg,Mn,O,Si",MgMn4(Si4O11)2,mp-1234983
0.7784000000000001,-3.240708382631579,4,"Cu,Ho,O,Si",Ho2Cu(SiO3)4,mp-1212369
0.7801,-1.9275484674798862,6,"Na,O,S,Si,Sn,Zn",Na2Zn4SiSn4S11O48,mp-2714090
0.7818,-2.2821024451190492,4,"Co,Li,O,Si",LiCoSiO4,mp-752951
0.7825000000000001,-2.473891163849777,6,"Ga,Na,Nb,O,S,Si",Na2Nb2Ga2Si3(SO8)3,mp-2713822
0.782799999999999,-3.173269721949152,4,"Al,Be,O,Si",Be6Al4Si12O37,mp-1227528
0.7841,-2.607008677310241,6,"Ca,H,K,Mg,O,Si",K3Ca2Mg10Si16(HO12)4,mp-720217
0.7852,-2.486119954828125,4,"K,Mg,O,Si",KMg6SiO8,mp-1031251
0.7865000000000001,-1.784829937222221,3,"Fe,O,Si",Fe7SiO10,mp-1225100
0.786899999999999,-3.05491353325,4,"F,Mg,O,Si",Mg3SiO5F,mp-1222236
0.7872,-3.089673408431591,5,"Al,Be,Na,O,Si",NaBe3Al2Si6O19,mp-1210148
0.7882,-2.236213278546521,6,"Ca,Ge,Na,O,S,Si",Na6Ca2Si5Ge6S7O48,mp-2715995
0.7882,-2.062230145416666,4,"Ag,Be,O,Si",BeSi(AgO2)2,mp-1214285
0.789,-2.33414390023291,6,"Ca,Na,O,S,Si,Sn",Na2CaSiSn(SO6)2,mp-2713701
0.7892999999999991,-2.491185308314761,6,"Al,In,Na,O,S,Si",Na14Al4In4Si7S5O48,mp-2715548
0.7892999999999991,-2.632610907391303,3,"Cr,O,Si",Cr5(Si2O7)2,mp-757245
0.7899,-3.043048485312501,4,"Cl,Eu,O,Si",Eu5Si(Cl3O2)2,mp-669318
0.790199999999999,-2.406264099591836,5,"Al,Cr,O,Sb,Si",Al4Cr13Si2(SbO14)2,mp-1044864
0.7902999999999991,-2.504804043125,4,"Co,Mg,O,Si",Mg6CoSiO8,mp-1032166
0.7902999999999991,-2.252489384355716,6,"Ge,Mg,Na,O,S,Si",Na2MgSiGe(SO6)2,mp-2713695
0.7935,-2.631984216666666,4,"Na,O,Si,Zr",Na2Zr(SiO3)6,mp-2912310
0.7938000000000001,-2.745695535657895,4,"Cr,Mg,O,Si",Mg2Cr2(SiO4)3,mp-1261423
0.7943999999999991,-2.617760469741379,4,"Mg,Mn,O,Si",MgMnSiO5,mp-1046683
0.7953999999999991,-2.647580479165236,6,"In,Na,O,P,Si,Ta",Na5TaIn3SiP5O24,mp-2716086
0.7955000000000001,-1.64871121235931,3,"O,Si,Tl",Tl32Si8O37,mp-1218127
0.7968000000000001,-2.55345584131579,4,"Cu,Mg,O,Si",MgCu2(SiO3)4,mp-756830
0.798099999999999,-2.252824044875,4,"O,Si,W,Zn",Zn3Si3(WO6)2,mp-1163950
0.7994000000000001,-2.795934390645834,4,"K,O,Si,Ti",K2TiSi3O10,mp-1197256
0.7994999999999991,-2.26465769038642,6,"Ga,Ge,Na,O,S,Si",Na4Ga2Si3Ge2(SO8)3,mp-2713706
0.8003999999999991,-2.792599301992187,4,"C,Mg,O,Si",Mg30SiCO32,mp-1039804
0.8008000000000001,-2.29636786654762,4,"Co,Li,O,Si",LiCoSiO4,mp-758617
0.802,-2.670648114770115,3,"Mn,O,Si",Mn(SiO3)2,mp-1142713
0.8026000000000001,-2.006811112979885,6,"Ge,In,Na,O,S,Si",Na2In4Si3Ge4(S3O16)3,mp-2716321
0.8042,-2.754662588333333,4,"Li,Mg,O,Si",LiMg6SiO8,mp-1030909
0.8046999999999981,-2.413047461875,3,"Mg,O,Si",Mg3SiO4,mp-1024036
0.8073,-2.684296245961538,4,"Al,O,Si,Sr",SrAl2(SiO4)2,mp-657543
0.8145,-3.079922909666666,4,"Al,Be,O,Si",Be3Al2Si6O19,mp-727940
0.8174,-2.096552815646551,5,"Mn,Na,O,Si,Ti",Na2Ti3Mn(Si2O11)2,mp-1238298
0.819399999999999,-2.799468314919371,5,"Cu,K,Na,O,Si",KNaCu(Si2O5)2,mp-543047
0.8225,-2.786636168717948,4,"Li,O,Si,V",LiV2(SiO4)2,mp-754643
0.8245,-2.504999741436197,6,"Ca,Na,O,S,Si,Ta",Na6Ca8Ta4Si3(S5O24)3,mp-2714487
0.8252,-2.811060214734375,5,"K,O,Si,Sn,Zr",K8Zr3Si12SnO40,mp-1224617
0.827199999999999,-2.890398062781249,4,"K,O,Si,Zr",K2ZrSi3O10,mp-1195938
0.8277000000000001,-2.296263920997204,4,"Na,O,Si,Y",Na5Y2(SiO4)6,mp-1221256
0.8289999999999991,-2.673128861336206,4,"Mg,Na,O,Si",NaMg6SiO8,mp-1031074
0.8315999999999991,-2.314243305865573,6,"Na,Nb,O,S,Si,Zn",Na7NbZn3Si3(SO8)3,mp-2714104
0.8339000000000001,-2.791942698146552,5,"Al,N,Na,O,Si",Na4Al3Si3NO13,mp-676449
0.8365,-2.037310619583334,5,"Al,N,Nd,O,Si",Nd4AlSi5(NO)7,mp-1249065
0.8366999999999991,-2.518662201249999,4,"Co,Mg,O,Si",Mg6CoSiO8,mp-1032193
0.8393,-2.1799854041935482,3,"Ca,O,Si",Ca3(Si3O11)2,mp-1182561
0.8395,-2.376938679798851,6,"Ge,La,Na,O,S,Si",NaLaSiGe(SO6)2,mp-2712688
0.8401000000000001,-2.307222163333333,4,"Cu,Li,O,Si",Li3CuSiO4,mp-758844
0.8406,-2.0523541100534812,5,"In,Na,O,S,Si",Na2In4SiS5O24,mp-2714504
0.8454,-2.593640688684212,4,"Co,Mg,O,Si",MgCo2(SiO3)4,mp-2231130
0.8459000000000001,-2.0836010255837882,6,"Ge,Na,O,S,Si,Zn",Na2ZnSiGe(SO6)2,mp-2713588
0.8465,-2.310591513895833,6,"Al,F,K,Li,O,Si",KLi2AlSi4(O5F)2,mp-735824
0.849599999999999,-2.393679153776526,6,"B,Fe,H,Na,O,Si",NaFe9Si6B3H2O31,mp-721034
0.8517,-2.665869141004903,5,"Ca,Nb,O,S,Si",Ca2Nb10Si9(SO8)9,mp-2713824
0.853599999999999,-2.471980428188406,4,"Li,O,Si,V",Li10V(SiO5)2,mp-765779
0.8538999999999991,-2.527691640530208,6,"Mg,Na,O,S,Si,Ti",Na14Mg6Ti2Si5S7O48,mp-2716101
0.8570000000000001,-2.209156170518715,6,"Ge,Na,O,S,Si,Zn",Na10Zn3Si6Ge5(SO8)6,mp-2713496
0.8586,-2.927310187311451,6,"In,Na,O,S,Si,Ta",Na10Ta6In2Si11SO48,mp-2716408
0.8597999999999991,-2.383371937777779,3,"Co,O,Si",Co(SiO3)2,mp-1042286
0.862599999999999,-2.8002005122619043,4,"Li,O,Si,V",LiVSiO4,mp-753644
0.8641000000000001,-2.9342100462,4,"Ca,O,Si,Zr",CaZrSi6O17,mp-1204163
0.8687,-2.643200898965733,6,"Ca,Co,K,Na,O,Si",KNaCaCo5(SiO3)8,mp-1223618
0.8704000000000001,-2.709934098333334,4,"Li,O,Si,V",LiV2(SiO4)2,mp-756291
0.8708,-2.047027343571427,4,"Ca,O,Si,V",CaVSi4O15,mp-1200285
0.8719999999999991,-2.337973254255897,5,"H,Mn,O,Si,Sr",SrMn2Si2(H2O5)2,mp-1218288
0.8733000000000001,-2.268425665955883,5,"Ge,O,S,Si,Y",Y2SiGe2S5O24,mp-2713100
0.8790999999999991,-2.415020485924699,6,"In,Na,O,S,Si,Zr",Na5ZrIn3Si3(SO8)3,mp-2713469
0.8795000000000001,-2.745357206520832,4,"K,O,Si,Zr",K2ZrSi2O7,mp-1198539
0.8807,-2.40706133684375,4,"K,O,Pb,Si",K2Si3PbO10,mp-728972
0.8808,-2.90036847671875,4,"O,Rb,Si,Zr",Rb2ZrSi3O10,mp-1199444
0.880899999999999,-0.8108952812857141,4,"C,N,O,Si",Si6C8N2O19,mp-1204030
0.8815000000000001,-2.957491029130434,5,"Ca,O,Si,Sr,V",Sr2CaV2(Si2O7)2,mp-1233748
0.8833000000000001,-2.460497487777778,3,"O,Si,V",VSiO4,mp-1143876
0.8844999999999991,-2.8106180756127452,5,"Hf,Nb,O,S,Si",Hf2Nb2Si3(SO8)3,mp-2713868
0.885699999999999,-2.756935452745098,4,"Cu,Li,O,Si",Li2Cu(Si2O5)2,mp-849775
0.8879,-2.64584886639706,5,"Mg,Nb,O,S,Si",Mg2Nb10Si9(SO8)9,mp-2713888
0.8894000000000001,-2.5702619935201163,3,"Mn,O,Si",Mn(SiO3)2,mp-1042331
0.8902000000000001,-2.470491611001916,4,"Li,Mn,O,Si",Li2Mn2Si2O9,mp-779016
0.893699999999999,-1.8865067942894092,6,"Ge,Na,O,S,Si,Zn",Na2Zn4SiGe4S11O48,mp-2714112
0.893699999999999,-2.637350935894911,4,"Li,Mn,O,Si",LiMnSiO4,mp-850949
0.8953000000000001,-2.415838162916668,5,"Ca,Nb,O,S,Si",Ca2Nb2SiS5O24,mp-2713035
0.8968,-1.9613579120283022,5,"Al,Ca,H,O,Si",Ca2Al4Si4H18O25,mp-690271
0.8971999999999991,-2.368567088571999,6,"In,La,Na,O,S,Si",Na2La2In2SiS5O24,mp-2715715
0.897899999999999,-2.823458807864584,4,"O,Rb,Si,Ti",Rb2TiSi3O10,mp-1209611
0.9031000000000001,-2.326795688354885,5,"C,Cr,Na,O,Si",Na2CrSiCO7,mp-772121
0.9053999999999991,-2.395890872228117,6,"Ca,Na,O,S,Si,Sn",Na10Ca3Si6Sn5(SO8)6,mp-2716554
0.9081999999999991,-1.801027629687502,4,"Ca,O,Si,Tl",CaTl6Si2O7,mp-1233752
0.9085000000000001,-2.5641169954375,4,"K,O,Si,Sn",K2Si3SnO10,mp-1195099
0.9095000000000001,-2.241359129122743,6,"Na,Nb,O,S,Si,Zn",Na2Nb4Zn4Si3(S3O16)3,mp-2716320
0.909999999999999,-2.482252395884648,6,"Al,Na,Nb,O,S,Si",Na2Nb2Al6Si3(S3O16)3,mp-2716291
0.9102999999999991,-2.953077762592593,4,"Li,O,Si,V",Li2VSi4O11,mp-765578
0.9117000000000001,-2.7061276209375,4,"Cu,O,Si,Zn",ZnCu(Si2O5)2,mp-1043369
0.9177000000000001,-2.918721804375001,3,"Ca,O,Si",Ca(SiO2)5,mp-1233759
0.9207999999999991,-2.706941164840848,4,"Li,Mn,O,Si",Li3MnSi2O7,mp-780126