band_gap,formation_energy_per_atom,nelements,elements,formula,material_id
3.1006,-2.903893123104166,5,"Co,Ho,K,O,Si",KHoCoSi2O7,mp-562568
3.1008,-2.372041555319293,5,"Be,Fe,O,Se,Si",Be3Fe4Si3SeO12,mp-704536
3.1008,-2.728396227713188,6,"Na,O,S,Sc,Si,Y",Na6Y4Sc4Si3(S3O16)3,mp-2713911
3.101,-3.011844112668105,4,"Mg,Mn,O,Si",MgMn(SiO3)2,mp-1041845
3.1013,-2.989575427469396,6,"Na,O,S,Sc,Si,Ta",Na6Sc2Ta2Si5SO24,mp-2713870
3.1021,-2.787397283333333,4,"Ba,Co,O,Si",BaCoSiO4,mp-562027
3.1024,-2.391505973040504,6,"Ga,In,Na,O,S,Si",Na4InGaSi2SO12,mp-2714529
3.1041,-2.6150553155000003,4,"Fe,O,Si,Zn",ZnFe(SiO3)2,mp-1255447
3.1041,-2.243158480851064,5,"Cl,N,Nd,O,Si",Nd10Si10N17ClO9,mp-686617
3.1042,-3.0661580477122232,6,"Na,O,P,Sc,Si,Ta",Na3Sc2Ta2SiP5O24,mp-2713058
3.105,-2.87793557204902,5,"Nb,O,S,Si,Ta",TaNbSi2SO12,mp-2715710
3.1051,-2.828554356961024,6,"Mg,Na,O,S,Si,Zr",Na10Mg2Zr6Si7S5O48,mp-2716102
3.105299999999999,-2.985616691764039,6,"La,Na,O,P,Si,Ta",Na3LaTaSi2PO12,mp-2713235
3.1062,-2.8846384183250153,6,"Hf,Na,O,S,Sc,Si",Na4Hf2Sc2Si3(SO8)3,mp-2713638
3.1064,-2.7480520225017973,4,"Li,Mn,O,Si",Li2Mn2(SiO3)3,mp-831259
3.1064,-3.248165132222222,5,"Al,O,Si,Sr,Tl",Sr5Al11TlSi13O48,mp-1249531
3.1069,-2.974939300114411,6,"Ga,Na,O,P,Si,Ta",Na3Ta3GaSi3(PO8)3,mp-2712863
3.1072,-2.941597067888374,6,"Ga,Na,O,S,Si,Ta",Na10Ta6Ga2Si11SO48,mp-2716479
3.1081,-3.076437894321524,6,"La,Na,O,P,Si,Ta",Na5LaTa3Si5PO24,mp-2716359
3.111499999999999,-3.061372482653331,6,"Na,O,S,Sc,Si,Ta",Na10Sc2Ta6Si11SO48,mp-2716419
3.1117,-2.352595161532567,6,"Ca,Na,O,S,Si,Zn",Na4CaZnSi(SO6)2,mp-2712867
3.111899999999999,-2.171235543508772,5,"Cl,N,O,Pr,Si",Pr4Si4N7ClO3,mp-699390
3.112199999999999,-2.23479351723404,5,"Br,N,Nd,O,Si",Nd10Si10BrN17O9,mp-677195
3.1123,-3.058468289351852,4,"Ca,Co,O,Si",Ca2CoSi2O7,mp-1199429
3.1125,-3.110343359583241,6,"Na,O,P,Sc,Si,Ta",Na2ScTa3Si2(PO6)4,mp-2715646
3.1132,-2.671470363695266,6,"Ca,Hf,Na,O,S,Si",Na8Ca3HfSi3(SO8)3,mp-2715192
3.1141,-2.5295657495969452,6,"Mg,Na,O,S,Sc,Si",Na4Mg2Sc2SiS5O24,mp-2713171
3.1148,-3.045361116160579,6,"Na,O,P,Sc,Si,Ta",Na7Sc3TaSi3(PO8)3,mp-2714735
3.115,-2.230838627500001,4,"H,O,Si,Zn",Zn4Si2H2O9,mp-1215671
3.1151,-2.854058600823938,6,"Ca,H,Mn,Na,O,Si",NaCaMn3Si5HO15,mp-1195048
3.1156,-2.417442706456897,6,"La,Na,O,S,Si,Zn",Na3LaZnSi(SO6)2,mp-2712692
3.116799999999999,-3.099876600236008,6,"Na,O,P,Sc,Si,Ta",NaScTa3SiP5O24,mp-2715814
3.1168,-2.840777587371794,4,"Fe,Li,O,Si",LiFeSi3O8,mp-1263751
3.117,-2.557557317712849,6,"Ga,Na,O,P,Si,Sn",Na3GaSiSn(PO6)2,mp-2715486
3.1178,-3.009737852984647,5,"Na,O,S,Si,Ta",Na2Ta8Si9(SO16)3,mp-2714209
3.1178,-2.951518275,3,"Mg,O,Si",Mg(SiO2)6,mp-1233503
3.1185,-2.708225347368296,5,"Na,O,S,Si,Y",Na2Y4SiS5O24,mp-2714548
3.119099999999999,-2.383979102817461,4,"Bi,Li,O,Si",LiSi6Bi9O26,mp-772721
3.1192,-2.475858200277779,5,"Al,N,O,Pr,Si",Pr4AlSi5(NO)7,mp-1173412
3.1195,-3.681512814226207,5,"Er,O,Si,Ti,Y",Y3ErTi4(SiO9)2,mp-1216271
3.120199999999999,-3.090641400807437,6,"La,Na,O,P,Si,Ta",NaLaTa3SiP5O24,mp-2715545
3.1203,-3.502566593366173,5,"Na,O,Pr,S,Si",NaPr9Si6(SO12)2,mp-686572
3.121699999999999,-2.9981595521399362,6,"Na,O,P,Si,Ta,Zn",Na9Ta10Zn2Si9(PO8)9,mp-2712993
3.1219,-2.9709192762223733,6,"Al,Na,O,P,Si,Ta",Na3TaAlSi2PO12,mp-2713289
3.1228,-3.515864087083335,5,"Ca,O,Si,Ti,Zr",Ca2ZrTi(SiO5)2,mp-1227799
3.123599999999999,-2.563266433645833,4,"Fe,Li,O,Si",Li2FeSiO4,mp-18968
3.1243,-2.682994959999999,4,"Ca,Mg,O,Si",CaMg6SiO8,mp-1032962
3.1248,-2.834718550574074,5,"H,K,O,Si,Ti",K2TiSi3(HO5)2,mp-758597
3.125,-2.558801447681159,5,"Be,Cd,O,Si,Te",Be3Cd4Si3TeO12,mp-17167
3.1258,-2.816880521180707,6,"Ga,Na,O,P,Si,Ta",Na3TaGaSi2PO12,mp-2715324
3.1262,-2.486215855063573,5,"Ge,Na,O,P,Si",Na3SiGe4P5O24,mp-2712986
3.1263,-3.509077866145833,6,"Al,Ca,F,O,Si,Ti",Ca2TiAlSi2O9F,mp-695698
3.1268,-2.851063827253148,6,"Na,O,P,Si,Sn,Ta",Na5Ta2Si5Sn2PO24,mp-2716449
3.1271,-2.645378592424243,4,"Co,Li,O,Si",Li2Co(SiO3)2,mp-753220
3.1276,-2.649324656592091,6,"Al,Na,O,S,Si,Sn",Na8Al2Si5Sn2SO24,mp-2715529
3.129,-2.6124900262656,6,"Hf,Na,O,S,Si,Zn",Na2Hf6Zn2Si3(S3O16)3,mp-2716424
3.1304,-2.77191926074077,6,"Ge,Na,O,P,Si,Ta",NaTa2SiGe2P5O24,mp-2715729
3.1310000000000002,-2.9073220404187192,4,"Mg,Mn,O,Si",MgMnSiO4,mp-1210608
3.1310000000000002,-2.79188474025641,4,"Bi,Li,O,Si",LiSi3BiO8,mp-757127
3.1316,-3.1350080442222232,4,"O,Rb,Si,Ti",Rb2Ti(SiO3)3,mp-17037
3.132,-3.118798279015803,6,"Ca,Fe,Mg,Na,O,Si",NaCa3MgFe(Si2O7)2,mp-1221128
3.1323,-2.924096798985633,5,"Al,Li,Na,O,Si",NaLiAl4(SiO6)2,mp-1221039
3.1324,-2.8582496336250003,4,"Mg,O,Si,Sn",MgSi2SnO6,mp-1041480
3.1325,-3.088509426874999,5,"Ca,Co,O,Si,Zn",Ca8ZnCo3(Si2O7)4,mp-1227193
3.1326,-2.905900568020833,4,"Fe,Li,O,Si",LiFe(Si2O5)2,mp-765958
3.1327,-3.084798133952208,5,"Na,Nb,O,Si,Ta",Na2TaNb(SiO4)3,mp-2714408
3.1338,-2.275094280269397,6,"Ca,Na,O,S,Si,Zn",Na6Ca2Zn2SiS5O24,mp-2713723
3.1342,-2.696488910168143,6,"Hf,Na,O,S,Si,Zn",Na6Hf6Zn2Si5S7O48,mp-2715829
3.134699999999999,-2.6119907574611023,6,"Hf,Na,O,S,Si,Zn",Na14Hf4Zn4Si7S5O48,mp-2715576
3.135799999999999,-2.971738810064782,6,"Mg,Na,O,S,Si,Ta",Na12Mg2Ta10Si15(SO24)3,mp-2714999
3.136,-2.50485499344093,5,"Ge,Na,O,P,Si",Na2SiGe2(PO6)2,mp-2712760
3.1365,-2.483276484407326,4,"Na,O,Si,Zn",Na2ZnSiO4,mp-17709
3.1366,-2.593335614375,4,"Mg,O,Si,V",Mg6VSiO8,mp-1031682
3.1369,-2.6811892902622123,4,"Li,Mn,O,Si",Li2MnSiO4,mp-783909
3.1378,-2.555955118020833,4,"Fe,Li,O,Si",Li2FeSiO4,mp-759942
3.138099999999999,-2.803508030925892,6,"Al,Na,O,S,Si,Ta",Na2TaAlSi2SO12,mp-2712553
3.138099999999999,-3.05940255,4,"Ba,Co,O,Si",Ba2CoSi2O7,mp-510015
3.1390000000000002,-2.426575227999998,3,"O,Rb,Si",Rb6Si2O7,mp-18483
3.1404,-2.484807840797415,4,"Na,O,Sb,Si",NaSiSbO5,mp-14730
3.1407,-2.75354748925,4,"Al,Cd,O,Si",Al2Cd3(SiO4)3,mp-14047
3.142499999999999,-2.5353132142500012,4,"Co,O,Si,Zn",ZnCo(SiO3)2,mp-1041850
3.1425,-2.552164171203704,4,"Fe,Li,O,Si",Li2Fe3Si3O10,mp-757294
3.1428,-2.0793594607499992,4,"H,O,Si,Zn",Zn2SiH2O5,mp-643814
3.1436,-2.5187518752976192,4,"Bi,Li,O,Si",LiSiBiO4,mp-757874
3.1438,-2.357909829222223,4,"Bi,Li,O,Si",LiSi2(BiO3)3,mp-757781
3.1454,-3.054506292826924,4,"Gd,K,O,Si",K3GdSi2O7,mp-680437
3.145599999999999,-3.503467423366175,5,"Na,O,Pr,S,Si",NaPr9Si6(SO12)2,mp-1221010
3.1459,-1.850195485769229,4,"Br,O,Pb,Si",SiPb4(BrO)4,mp-556172
3.146899999999999,-2.625092469479885,5,"Na,O,S,Sc,Si",Na2Sc8SiS11O48,mp-2714043
3.1469,-2.322139662013854,5,"Al,K,Na,O,Si",KNa3Al4(SiO4)4,mp-540861
3.147199999999999,-2.7863996974544243,6,"In,Na,O,P,Si,Ta",Na7Ta2In2Si5PO24,mp-2714500
3.1473,-2.956638000783626,6,"Ga,Na,O,P,Si,Ta",NaTa3GaSiP5O24,mp-2715807
3.147799999999999,-3.061622084866662,6,"Al,Na,O,P,Si,Ta",Na3Ta3AlSi3(PO8)3,mp-2712842
3.1483,-2.962872678161483,6,"In,Na,O,P,Si,Ta",Na4Ta3InSi4(PO12)2,mp-2715052
3.1485,-2.6786572280747123,4,"Li,Mn,O,Si",Li2MnSiO4,mp-774639
3.149,-2.520682490448508,5,"Ge,Na,O,P,Si",Na5Si3Ge4(PO8)3,mp-2714023
3.1491,-2.842061191,4,"Mg,O,Si,Sn",MgSi2SnO6,mp-1046947
3.1494,-2.846417664883393,6,"Ge,Hf,Na,O,P,Si",Na3Hf2SiGe2P5O24,mp-2713015
3.1496,-2.948849342749999,5,"Ca,Co,Ni,O,Si",Ca4Co3Si8NiO24,mp-1227707
3.1497,-1.582156698566664,4,"K,O,S,Si",K6Si2S6O,mp-555596
3.151399999999999,-2.8106691490625,4,"Mg,O,Si,V",Mg14VSiO16,mp-1034449
3.151699999999999,-3.133536617916667,5,"Ca,Co,O,Si,Zn",Ca8Zn3Co(Si2O7)4,mp-1227259
3.1518,-2.717438684144397,6,"Al,Na,O,S,Sc,Si",Na6Sc2Al2Si3(SO8)3,mp-2716137
3.1526,-2.691509679514238,6,"Ga,Na,O,P,Si,Ta",Na7TaGa3Si3(PO8)3,mp-2714833
3.1533,-2.675053150272384,6,"Al,Na,O,S,Si,Ta",Na4TaAl3Si3(SO8)3,mp-2713545
3.1536,-2.887630170333334,4,"Cr,Li,O,Si",LiCr(SiO3)2,mp-765857
3.1536,-2.5465389640640392,5,"Ge,Na,O,P,Si",Na3Si2Ge2PO12,mp-2715261
3.1539,-3.048146712628353,5,"Al,Fe,Na,O,Si",Na6Al4Fe(Si4O13)2,mp-684864
3.1546,-3.111526386979166,5,"Ca,Co,O,Si,Zn",Ca4ZnCo(Si2O7)2,mp-1227034
3.155399999999999,-2.174966847234341,4,"Na,O,P,Si",Na3Si2PO8,mp-657378
3.155699999999999,-2.215757569555556,4,"Li,Ni,O,Si",Li2Si2Ni3O8,mp-766974
3.1557,-2.792737102261903,4,"Fe,Li,O,Si",Li2FeSi3O8,mp-772029
3.155799999999999,-2.593727594333788,6,"Ca,Na,O,S,Sc,Si",Na4Ca2Sc2SiS5O24,mp-2713466
3.157,-2.549658840208333,4,"Fe,Li,O,Si",Li2FeSiO4,mp-757833
3.157299999999999,-3.015962008132107,6,"Na,O,S,Si,Ta,Zr",Na6Zr4Ta4Si9(SO16)3,mp-2712856
3.1574,-2.54200711668904,5,"Ge,Na,O,P,Si",Na3Si2Ge2PO12,mp-2715453
3.158899999999999,-2.880801593715485,6,"Ca,Na,O,P,Si,Ta",Na12Ca4Ta2Si3(PO6)6,mp-2714341
3.159,-2.767020317326074,4,"Li,Mn,O,Si",Li4Mn2Si3O10,mp-757670
3.1595,-2.767005680119047,4,"Co,Li,O,Si",Li2CoSi3O8,mp-753262
3.16,-3.099959613512359,6,"Na,O,P,Si,Ta,Y",Na4YTa3Si4(PO12)2,mp-2715064
3.160199999999999,-2.5523830333333333,4,"Fe,Li,O,Si",Li2FeSiO4,mp-752900
3.1603,-3.170725262105263,4,"Al,Ca,O,Si",CaAl2(SiO3)4,mp-1214005
3.1603,-3.521060034513889,6,"Al,Ca,F,O,Si,Ti",Ca3TiAl2Si3O13F2,mp-43114
3.1606,-2.62029984029023,6,"Ca,Hf,Na,O,S,Si",Na6Ca3HfSi2(SO6)4,mp-2712735
3.162099999999999,-2.382873220862069,3,"Cs,O,Si",Cs6Si2O7,mp-18315
3.1628,-2.265369077049071,5,"C,Na,O,Sb,Si",Na3SiSbCO7,mp-772713
3.1635,-2.844731499679277,6,"Na,O,P,Si,Sn,Zr",Na5Zr2Si3Sn2(PO8)3,mp-2714225
3.1641,-2.461239497976191,4,"Bi,Li,O,Si",LiSiBiO4,mp-757383
3.1649,-2.495682817619048,4,"Bi,Li,O,Si",LiSiBiO4,mp-772109
3.1655,-2.628365290477012,6,"Ga,Na,O,S,Si,Ta",Na8TaGa3Si5SO24,mp-2715663
3.165999999999999,-2.805104861590053,6,"Ga,Na,O,P,Si,Ta",Na2TaGaSi(PO6)2,mp-2712796
3.1666,-2.814115994789928,6,"La,Na,O,S,Si,Ta",Na4La3TaSi3(SO8)3,mp-2713642
3.1671,-3.0144740885,5,"Ca,Fe,O,Si,Zn",Ca4ZnFe3(SiO3)8,mp-1227136
3.168,-2.21148165246544,6,"Ga,Mg,Na,O,S,Si",Na6Mg4Ga4SiS11O48,mp-2713684
3.168199999999999,-2.38893391266352,6,"Hf,Na,O,S,Si,Zn",Na8HfZn3Si3(SO8)3,mp-2715033
3.1687,-2.834303477371794,4,"Fe,Li,O,Si",LiFeSi3O8,mp-765631
3.1691,-3.104131870759817,6,"Na,O,P,Si,Ta,Y",NaYTa3SiP5O24,mp-2715693
3.1691,-3.034256137305706,6,"Na,O,P,Si,Ta,Y",Na3YTaSi2PO12,mp-2715381
3.169399999999999,-2.4720878572619043,4,"Bi,Li,O,Si",LiSiBiO4,mp-1266684
3.169499999999999,-2.60101560625,4,"Fe,O,Si,Zn",ZnFe(SiO3)2,mp-1041868
3.1696,-3.041431564586989,6,"Na,O,P,Sc,Si,Ta",Na8Sc3TaSi4(PO12)2,mp-2715678
3.1696,-2.639161123513613,6,"Ga,Na,O,S,Si,Ta",Na2TaGaSi2SO12,mp-2712621
3.1703,-2.910528143497687,6,"Ca,Na,O,S,Si,Zr",Na14Ca2Zr6Si9(SO16)3,mp-2714653
3.1704,-3.047744160543854,6,"Na,O,P,Sc,Si,Ta",Na7Sc2Ta2Si5PO24,mp-2714439
3.1704,-2.5539284542259812,6,"Mg,Na,O,S,Sc,Si",Na10Mg4Sc4Si3(S3O16)3,mp-2714821
3.1716,-3.069688478385417,5,"Ca,O,Si,Sn,Ti",Ca4TiSi4Sn3O20,mp-1227137
3.171899999999999,-2.9944558516249993,5,"Al,Fe,Mg,O,Si",Mg5Al4Fe(SiO4)6,mp-1249333
3.172799999999999,-2.633043228794472,6,"Hf,Na,O,S,Si,Zn",Na4HfZnSi2SO12,mp-2714462
3.1728,-3.014348673084052,4,"Mn,O,Rb,Si",Rb2MnSi5O12,mp-1195883
3.1736,-2.636476214206348,3,"O,Si,Tl",Tl4Si5O12,mp-1201442
3.1737,-2.475970638457037,6,"Na,O,S,Si,Y,Zn",Na14Y4Zn4Si5S7O48,mp-2715889
3.1738,-2.501840143874999,4,"Cr,Fe,O,Si",Cr2Fe3(SiO4)3,mp-6670
3.1739,-2.700811975032327,4,"Be,Na,O,Si",Na2BeSiO4,mp-560829
3.1742,-3.025074768124999,3,"Mg,O,Si",MgSiO3,mp-642228
3.174299999999999,-2.487630072219827,4,"Na,O,Si,Zn",Na2ZnSiO4,mp-6391
3.174299999999999,-2.611213505500822,4,"Na,O,Si,Sn",Na4Si3(SnO6)2,mp-554853
3.1744,-2.845933543967247,6,"Na,O,P,Si,Sn,Zr",Na2ZrSiSn(PO6)2,mp-2712558
3.1749,-2.941813664093983,4,"Li,Mn,O,Si",Li2Mn(Si2O5)2,mp-849390
3.1753,-2.5044550423809513,4,"Fe,Li,O,Si",Li2Fe5Si5O16,mp-883454
3.1761,-3.330202970434781,3,"Al,O,Si",Al8SiO14,mp-1228858
3.1765,-2.827219171189041,6,"Ge,Na,O,P,Si,Zr",Na3ZrSi2GePO12,mp-2713664
3.1768,-2.717548969060469,5,"Be,Mn,O,Si,Te",Mn4Be3Si3TeO12,mp-18320
3.1773,-2.836440641493262,6,"Mg,Na,O,P,Si,Ta",Na12Mg4Ta2Si3(PO6)6,mp-2714588
3.177499999999999,-2.504231393690475,4,"Fe,Li,O,Si",LiFeSiO4,mp-757447
3.1776,-2.6956909269877842,6,"Ga,Na,O,P,Si,Ta",Na8TaGa3Si4(PO12)2,mp-2716255
3.177899999999999,-2.9179779804203223,6,"Al,Na,O,P,Si,Ta",Na8TaAl3Si4(PO12)2,mp-2716147
3.177899999999999,-2.3681261911206892,5,"Ca,H,O,Si,V",CaVSi4H8O15,mp-1198008
3.1803,-2.85070760404762,4,"Li,O,Si,V",Li2VSi3O8,mp-766402
3.181,-3.004897001812286,5,"Hf,Na,O,S,Si",Na6Hf8Si7S5O48,mp-2712936
3.1816,-2.944783677574923,6,"Al,Na,O,S,Si,Ta",Na14Ta4Al4Si11SO48,mp-2714338
3.181699999999999,-2.889119506975197,4,"Li,Mn,O,Si",Li2Mn2Si4O11,mp-767711
3.1827,-2.543749990208333,4,"Fe,Li,O,Si",Li2FeSiO4,mp-764340
3.1827,-2.554742448645833,4,"Fe,Li,O,Si",Li2FeSiO4,mp-758823
3.1829,-2.474031660286305,6,"Na,O,S,Sc,Si,Zn",Na14Sc4Zn4Si5S7O48,mp-2715935
3.183,-2.36128471450431,5,"Ca,Ga,Na,O,Si",NaCaGaSi2O7,mp-698690
3.183899999999999,-2.956012241211139,6,"Na,O,S,Si,Ta,Y",Na8Y3TaSi5SO24,mp-2715634
3.1839,-2.635650775183361,6,"Ga,Na,O,S,Si,Y",Na4YGaSi2SO12,mp-2714617
3.184299999999999,-2.965520901396073,5,"Hf,Na,O,S,Si",Na2Hf4Si3(SO8)3,mp-2713424
3.1847,-2.794645825215106,5,"In,Na,O,Si,Ta",Na4TaIn(SiO4)3,mp-2716549
3.1849,-2.9846895834858342,6,"Ca,Na,O,S,Si,Ta",Na12Ca2Ta10Si15(SO24)3,mp-2715009
3.184999999999999,-3.055106833775516,6,"Al,Na,O,P,Si,Ta",Na4Ta3AlSi4(PO12)2,mp-2715140
3.1856,-2.185695517105262,5,"Cl,N,Nd,O,Si",Nd4Si4N7ClO3,mp-677703
3.1857,-2.631599039123564,6,"Ca,Na,O,S,Sc,Si",Na3CaScSi(SO6)2,mp-2712777
3.1858,-3.005437608728448,6,"Ca,Cr,Mg,Na,O,Si",Na3CaMgCr3(SiO3)8,mp-1221259
3.1859,-2.6996963497985,6,"In,Na,O,S,Si,Zr",Na14Zr4In4Si9(SO16)3,mp-2714946
3.1862,-3.05647696607366,6,"Al,Na,O,P,Si,Ta",Na5Ta3AlSi5PO24,mp-2716390
3.1871,-2.749166153002953,5,"Be,Mn,O,Se,Si",Mn4Be3Si3SeO12,mp-18554
3.1874000000000002,-2.729772314047619,4,"Cr,Li,O,Si",LiCrSiO4,mp-753436
3.1879,-2.6873146796813723,5,"Ca,Hf,O,S,Si",CaHf3SiS5O24,mp-2713012
3.1883,-2.200407186583334,5,"Al,H,Li,O,Si",LiAlSiH2O5,mp-655057
3.188699999999999,-2.7214575001960792,4,"Fe,Li,O,Si",Li4Fe(SiO3)3,mp-758639
3.1893000000000002,-2.825868396017998,6,"Na,O,S,Sc,Si,Ta",Na4Sc3TaSi3(SO8)3,mp-2713234
3.1893000000000002,-2.541662714895833,4,"Fe,Li,O,Si",Li2FeSiO4,mp-764344
3.1895,-2.527965774673157,5,"In,Na,O,P,Si",Na4In2Si(PO6)2,mp-2714510
3.1904999999999992,-2.5959264841666823,3,"O,Pb,Si",SiPbO3,mp-21723
3.190699999999999,-2.91415320109355,4,"Na,O,Si,Ti",Na2TiSiO5,mp-621926
3.1907,-2.7619827256465532,6,"Hf,La,Na,O,S,Si",Na2La4Hf4Si3(S3O16)3,mp-2716380
3.1924,-2.9207595577711833,6,"Al,Na,O,P,Si,Ta",Na6TaAl3Si2(PO6)4,mp-2715312
3.1933,-2.651803360454545,4,"Co,Li,O,Si",Li2Co(SiO3)2,mp-758014
3.1934,-2.923718253083332,4,"Cr,Li,O,Si",LiCr(SiO3)2,mp-757604
3.1964,-2.641695051512726,6,"Al,Ge,Na,O,S,Si",Na8Al2Si5Ge2SO24,mp-2715619
3.1964,-2.381144441607142,4,"O,Pb,Si,Zn",ZnSiPbO4,mp-21724
3.1971,-2.805684185641025,4,"Fe,Li,O,Si",LiFeSi3O8,mp-757618
3.197399999999999,-3.103593353994815,6,"Na,O,P,Sc,Si,Ta",Na4ScTa3Si4(PO12)2,mp-2715006
3.198099999999999,-3.050702571646862,6,"Mg,Na,O,P,Si,Ta",Na6MgTa5Si6(PO12)3,mp-2715221
3.1986,-2.721912102368421,4,"Mg,Mo,O,Si",MgSi4(MoO6)2,mp-2230316
3.1986,-2.5497156146813733,5,"Hf,O,S,Si,Zn",Hf3ZnSiS5O24,mp-2713116
3.1993,-3.067380037626774,6,"Na,O,P,Si,Ta,Y",Na5Y3TaSiP5O24,mp-2714042
3.1995,-2.92183503309686,6,"Al,Na,O,P,Si,Ta",Na5TaAl3SiP5O24,mp-2715905
3.1997,-2.49909975076923,5,"C,Cr,Li,O,Si",Li3CrSiCO7,mp-774236
3.201,-2.560902622462555,5,"Ge,Na,O,P,Si",Na7Si5Ge4PO24,mp-2714618
3.2012,-3.062097160769668,6,"Ca,Na,O,P,Si,Ta",Na6CaTa5Si6(PO12)3,mp-2715100
3.2013,-2.880860275113541,5,"In,Na,O,Si,Ta",Na14Ta5In3(SiO4)12,mp-2712898
3.2016,-1.952740435555555,4,"H,Ni,O,Si",Si2Ni3H4O9,mp-1105877
3.202099999999999,-2.541088178645833,4,"Fe,Li,O,Si",Li2FeSiO4,mp-1265539
3.2022,-2.936712686874999,4,"Ca,O,Si,Sn",CaSiSnO5,mp-644103
3.202499999999999,-3.048477230850574,5,"Al,Fe,Na,O,Si",Na6Al4Fe(Si4O13)2,mp-42298
3.2025,-2.60065800141352,6,"Na,O,S,Si,Zn,Zr",Na4ZrZnSi2SO12,mp-2714435
3.2034,-3.033737014486092,7,"Al,Cl,K,Na,O,Si,Ti",K6Na3Ti2Al2Si8Cl3O26,mp-1223736
3.203999999999999,-3.0154402381931,6,"La,Na,O,P,Si,Ta",Na7La3TaSi3(PO8)3,mp-2715190
3.2044,-3.05208530938904,6,"Na,O,P,Sc,Si,Ta",Na3ScTaSi2PO12,mp-2715281
3.2044,-2.825901855256409,4,"Fe,Li,O,Si",LiFeSi3O8,mp-758763
3.2045,-2.8333885717948712,4,"Fe,Li,O,Si",LiFeSi3O8,mp-757596
3.2047,-2.970745251080987,6,"Al,Na,O,P,Si,Ta",Na5Ta2Al2Si3(PO8)3,mp-2714056
3.2054,-2.757698202217981,6,"Hf,Na,O,S,Sc,Si",Na2Hf4Sc4Si3(S3O16)3,mp-2716386
3.2058,-3.021150068749999,5,"Ca,Fe,O,Si,Zn",Ca2ZnFe(SiO3)4,mp-1227662
3.2066,-2.515013081874999,4,"Fe,Li,O,Si",Li2FeSiO4,mp-753118
3.2071,-2.722192686181657,6,"La,Na,O,S,Sc,Si",Na6La4Sc4Si3(S3O16)3,mp-2713763
3.207499999999999,-2.551958751591473,6,"Ga,Ge,Na,O,P,Si",Na7Ga2Si3Ge2(PO8)3,mp-2715162
3.2081,-2.992997699010217,4,"Na,O,Si,Ti",Na2TiSiO5,mp-555976
3.2088,-2.621107898000821,6,"In,Na,O,S,Sc,Si",Na4ScInSi2SO12,mp-2714461
3.2089,-3.154832765416666,4,"Al,Ca,O,Si",Ca2Al2SiO7,mp-677549
3.2096,-2.856989737729684,6,"Hf,In,Na,O,P,Si",Na7Hf2In2Si3(PO8)3,mp-2714876
3.2098,-2.996980280333333,5,"Li,Mg,O,Sc,Si",LiMg6Sc(SiO3)8,mp-695000
3.2104,-3.629723050909097,3,"Gd,O,Si",Gd2Si2O7,mp-13775
3.2108,-3.136217266522223,4,"K,O,Si,Ti",K2Ti(SiO3)3,mp-6810
3.2112,-2.463792310320629,6,"In,Na,O,S,Sc,Si",Na2ScInSi(SO6)2,mp-2713221
3.2115,-2.8145548010993133,6,"Na,O,S,Si,Zn,Zr",Na14Zr6Zn2Si9(SO16)3,mp-2714844
3.211699999999999,-2.70564433837891,6,"Al,Na,O,P,Si,Sn",Na5Al2SiSn2P5O24,mp-2716034
3.2121,-2.971145388448985,6,"Ga,Na,O,P,Si,Ta",Na2Ta3GaSi2(PO6)4,mp-2715606
3.2123,-3.067857652475218,6,"Ca,Na,O,P,Si,Ta",Na3CaTa5Si3(PO6)6,mp-2715627
3.213199999999999,-2.913452989408601,4,"Fe,Li,O,Si",Li2Fe2Si8O19,mp-765416
3.2132,-2.383219155813219,5,"Al,Na,O,S,Si",Na2Al8SiS11O48,mp-2714245
3.2136,-2.623114569229395,6,"Mg,Na,O,S,Sc,Si",Na14Mg4Sc4Si5S7O48,mp-2715942
3.2148,-2.8512197476235652,6,"Mg,Na,O,S,Si,Zr",Na6MgZr3Si4(SO12)2,mp-2714454
3.215,-3.102721019962549,6,"Na,O,P,Sc,Si,Ta",Na5ScTa3Si5PO24,mp-2716404
3.215299999999999,-3.102775733333333,4,"Li,O,Si,Ti",Li2TiSiO5,mp-6332
3.2155,-2.504663663690475,4,"Bi,Li,O,Si",LiSiBiO4,mp-752501
3.2155,-2.388428879781536,6,"Na,O,S,Sc,Si,Zn",Na10Sc4Zn4Si3(S3O16)3,mp-2714808
3.2165,-2.068949156071428,5,"Al,Ba,N,O,Si",BaAlSi4N5O3,mp-1019537
3.2172,-2.9285456925997773,6,"Hf,Na,O,S,Si,Zr",Na2Hf2Zr2Si3(SO8)3,mp-2713182
3.2173,-2.731298176583334,4,"Fe,Li,O,Si",LiFe(SiO3)2,mp-1259488
3.2189,-2.643227673400702,6,"Ge,Na,O,S,Si,Ta",NaTaSi2GeSO12,mp-2715526
3.2192,-3.079351247043104,4,"Ca,Mn,O,Si",CaMn(SiO3)2,mp-1041904
3.219299999999999,-2.975792312130779,6,"Ga,Na,O,P,Si,Ta",Na4Ta3GaSi4(PO12)2,mp-2715071
3.2196,-2.519028450550533,6,"Al,Ga,Na,O,S,Si",Na14Al4Ga4Si7S5O48,mp-2715613
3.2196,-2.878330605156249,4,"Mg,Ni,O,Si",MgSi4NiO10,mp-1043541
3.2198,-2.9971444876930082,5,"Na,O,Si,Ta,Zn",Na9Ta5Zn(SiO4)9,mp-2715393
3.219900000000001,-2.586370612499998,4,"Mg,O,Si,V",Mg6VSiO8,mp-1031664
3.2202,-3.054150766847374,6,"Na,O,P,Sc,Si,Ta",Na3ScTaSi2PO12,mp-2715309
3.221299999999999,-2.740845179861111,3,"O,Si,Sn",Si2SnO6,mp-1041773
3.221999999999999,-2.703804753787879,4,"Fe,Li,O,Si",Li2Fe(SiO3)2,mp-753951
3.222,-2.680500501824712,4,"Li,Mn,O,Si",Li2MnSiO4,mp-780709
3.222,-2.458439296547619,4,"Bi,Li,O,Si",LiSiBiO4,mp-766350
3.2221,-2.381574120057471,3,"Na,O,Si",Na4SiO4,mp-7500
3.222699999999999,-3.071712532735632,6,"Al,Ca,Fe,Na,O,Si",NaCaAlFe(SiO3)4,mp-1173750
3.2234,-2.611430327736842,5,"Al,H,K,O,Si",K2Al2Si3(HO5)2,mp-1212051
3.2251,-2.627243689598933,6,"Al,Hf,Na,O,S,Si",Na2Hf4Al4Si3(S3O16)3,mp-2716437
3.2256,-2.535484458318281,6,"Al,In,Na,O,S,Si",Na4AlInSi2SO12,mp-2714511
3.2266,-2.927157428668995,4,"Ca,Mn,O,Si",CaMn4(SiO3)5,mp-558800
3.2274,-3.515364937708334,6,"Al,Ca,F,O,Si,Ti",Ca2TiAlSi2O9F,mp-1227381
3.2276,-2.824933721779399,6,"La,Na,O,S,Si,Zr",Na5La3ZrSi3(SO8)3,mp-2713438
3.227699999999999,-2.800981805444354,6,"Ge,Na,O,P,Si,Ta",NaTaSiGe(PO6)2,mp-2715671
3.2278000000000002,-3.049279078359675,5,"Mg,Na,O,Si,Ta",Na9MgTa5(SiO4)9,mp-2715390
3.2279,-2.5257789017773042,5,"In,Na,O,P,Si",Na7In4SiP5O24,mp-2715638
3.2283,-2.8255149469390393,6,"Ge,Na,O,P,Si,Zr",Na3ZrSi2GePO12,mp-2713719
3.2288,-3.010031725,3,"Mg,O,Si",Mg(SiO2)6,mp-1233493
3.2291,-2.824944637578545,6,"La,Na,O,S,Si,Ta",Na10La7TaSi6(SO8)6,mp-2716356
3.2298,-2.154911696429404,6,"Na,O,S,Si,Zn,Zr",Na6Zr2Zn6SiS11O48,mp-2712726
3.231,-2.693006979083334,4,"Fe,Li,O,Si",LiFe(SiO3)2,mp-863416