band_gap,formation_energy_per_atom,nelements,elements,formula,material_id
4.4998000000000005,-3.055512904226189,5,"Ca,Cl,O,S,Si",Ca10Si3S3(ClO12)2,mp-42163
4.4998000000000005,-3.20941428075,3,"Mg,O,Si",MgSiO3,mp-1195746
4.5001,-3.207796784371195,4,"Al,Cs,O,Si",Cs2Al2Si3O10,mp-1201495
4.5009999999999994,-3.184236963892856,4,"Al,K,O,Si",KAlSiO4,mp-9480
4.5021,-3.183893003178571,4,"Al,K,O,Si",KAlSiO4,mp-8355
4.5025,-2.1931451298,5,"Al,H,N,O,Si",Al2Si3H8(NO5)2,mp-1183012
4.5029,-3.2808403755,4,"Ca,Cl,O,Si",Ca3Si(ClO2)2,mp-540868
4.5031,-3.372826509375,4,"Mg,O,Si,Sr",Sr2MgSi2O7,mp-1246991
4.504,-3.38609190125,5,"Ca,Mg,O,Si,Sr",SrCaMgSi2O7,mp-1218410
4.5058,-3.154789041299568,5,"Al,K,Na,O,Si",KNa3Al4(SiO4)4,mp-559901
4.506500000000001,-2.5936799323529423,4,"Al,H,O,Si",Al2Si2H4O9,mp-1105589
4.5112,-3.076048018333332,2,"O,Si",SiO2,mp-556132
4.5136,-3.114268189423077,4,"Ba,K,O,Si",K2Ba7(Si2O5)8,mp-1224055
4.5138,-3.171468183564039,6,"Hf,Na,O,P,Si,Zr",Na3HfZrSi2PO12,mp-2715468
4.5141,-2.860491875196079,4,"Hf,O,S,Si",Hf2Si(SO6)2,mp-2713341
4.5177,-3.183537512464286,4,"Al,K,O,Si",KAlSiO4,mp-1223541
4.518,-3.268735353063219,5,"F,Na,Nd,O,Si",Na5Nd4Si4O16F,mp-1192521
4.5193,-2.865287828427535,7,"Al,B,Cl,H,K,O,Si",K6Al4Si6BH4ClO24,mp-1199737
4.5199,-3.230066129750001,4,"Ca,O,S,Si",Ca5Si2SO12,mp-6607
4.520300000000001,-3.183964880479166,4,"K,O,Si,Zr",K2ZrSi2O7,mp-1019792
4.5204,-3.146950736232127,5,"Al,Cl,Na,O,Si",Na4Al3Si9ClO24,mp-676431
4.521100000000001,-3.016962368171183,6,"Al,Hf,Na,O,P,Si",Na3HfAlSi(PO6)2,mp-2715477
4.5215,-2.694609614613665,6,"Al,Hf,Na,O,S,Si",NaHfAlSi(SO6)2,mp-2714038
4.522600000000001,-3.379421794166667,5,"Ba,Mg,O,Si,Sr",BaSrMgSi2O7,mp-1227482
4.5227,-2.948969151249999,4,"Ca,Ni,O,Si",CaSi2NiO6,mp-19220
4.524699999999999,-3.186144017249999,4,"K,O,Si,Zr",K2ZrSi2O7,mp-559489
4.5273,-3.097974898333333,2,"O,Si",SiO2,mp-560954
4.528499999999999,-2.875695295,2,"O,Si",SiO2,mp-1021503
4.5304,-3.211768395499999,3,"Mg,O,Si",MgSiO3,mp-4321
4.5344,-3.659418946363636,3,"Dy,O,Si",Dy2Si2O7,mp-1225780
4.5344999999999995,-3.3819813555,3,"Ba,O,Si",BaSiO3,mp-7339
4.5346,-3.120014275357142,5,"Al,Ca,H,O,Si",CaAl4Si2(HO6)2,mp-24469
4.5347,-3.315837871999999,4,"Al,Ca,O,Si",CaAl2(Si3O8)2,mp-1233677
4.536299999999999,-3.4282218700000002,4,"Al,Ca,O,Si",CaAl2SiO6,mp-1019586
4.536300000000001,-3.631461509999999,4,"O,Sc,Si,Y",YScSi2O7,mp-1207607
4.5364,-2.906399697347701,4,"K,Na,O,Si",KNaSi2O5,mp-557679
4.5372,-2.87050337800649,5,"Al,Na,O,P,Si",Na4Al2Si(PO6)2,mp-2714518
4.538200000000001,-2.68454943838081,5,"Al,H,Na,O,Si",Na2Al2Si3(HO3)4,mp-1173798
4.5392,-3.145676329939038,5,"Na,O,P,Si,Zr",Na3Zr2Si2PO12,mp-532695
4.5395,-3.7188440825,4,"B,Dy,O,Si",Dy5Si2BO13,mp-1225574
4.5395,-3.2518051221939652,6,"Ca,F,Mg,Na,O,Si",Na2CaMg5Si8(O11F)2,mp-1221470
4.541399999999999,-3.780507211388888,4,"F,La,O,Si",LaSiO3F,mp-541995
4.541499999999999,-3.324810085625,4,"Al,Ca,O,Si",CaAl2Si3O10,mp-1195158
4.5416,-2.466592434166666,3,"H,O,Si",Si2H2O5,mp-626085
4.5428000000000015,-3.139978959720853,4,"Al,Na,O,Si",NaAlSiO4,mp-667374
4.544399999999999,-3.221626549,3,"Mg,O,Si",MgSiO3,mp-603930
4.5474,-3.026327965131047,6,"Al,Hf,Na,O,P,Si",Na5Hf2Al2SiP5O24,mp-2715904
4.5475,-2.806945222532327,4,"Be,Na,O,Si",Na2BeSiO4,mp-17183
4.549800000000001,-3.41135347025,4,"Al,Ca,O,Si",CaAl2SiO6,mp-1019572
4.5512,-3.046217887468362,5,"Na,O,P,Sc,Si",Na7Sc4SiP5O24,mp-2715658
4.5532,-3.505057990454544,4,"Ca,O,Si,Zr",CaZrSi2O7,mp-7079
4.5533,-2.459652085,3,"As,O,Si",Si2As2O7,mp-770811
4.553699999999999,-3.244437245728448,6,"F,Mg,Na,O,Sc,Si",Na3Mg4ScSi8(O11F)2,mp-1173812
4.5564,-3.211072767812501,4,"Cl,O,Si,Y",Y3Si2Cl5O6,mp-557092
4.5577000000000005,-2.586066983189654,4,"H,Mg,O,Si",Mg7Si2(H3O7)2,mp-1180494
4.558,-3.294698232291667,4,"Ba,Mg,O,Si",BaMg2Si2O7,mp-1019549
4.5604,-2.925101434791666,4,"Al,Li,O,Si",Li5Al(SiO4)2,mp-1222486
4.5618,-3.175020719818966,6,"Ca,Na,O,Sc,Si,Zn",NaCaScZn(SiO3)4,mp-1221076
4.562,-3.259336173031608,5,"Al,Ca,Na,O,Si",NaCaAlSi2O7,mp-1221104
4.5621,-3.241749217876588,4,"Al,Cs,O,Si",CsAlSi5O12,mp-1226440
4.5629,-3.000553216892856,5,"Al,H,K,O,Si",KAl3Si3(HO6)2,mp-1223717
4.5629,-3.664285678863635,3,"La,O,Si",La2Si2O7,mp-18639
4.5639,-2.819454229749999,4,"Mg,Ni,O,Si",MgSi2NiO6,mp-1259496
4.5653,-3.146840108563217,4,"Na,O,Si,Zr",Na2ZrSi2O7,mp-558191
4.5657,-3.319185111268472,4,"La,Na,O,Si",NaLaSiO4,mp-1020648
4.566699999999999,-3.601466856964285,4,"Cl,Nd,O,Si",Nd3Si2ClO8,mp-559764
4.567500000000001,-3.839805311354167,3,"Lu,O,Si",Lu2SiO5,mp-18195
4.5676,-3.097221144171182,6,"Ca,Hf,Na,O,P,Si",Na6CaHf3Si2(PO6)4,mp-2715462
4.5678,-3.074444634421182,6,"Hf,Mg,Na,O,P,Si",Na6Hf3MgSi2(PO6)4,mp-2715379
4.572,-3.346113002874999,4,"Al,O,Si,Sr",Sr3Al2(SiO4)3,mp-14048
4.573499999999999,-2.980523568756157,5,"Al,H,Na,O,Si",NaAl3Si3(HO6)2,mp-1220920
4.575100000000001,-3.003764733949552,6,"Al,Ca,Na,O,S,Si",Na3CaAl3Si3SO16,mp-1221308
4.5756,-3.210563030375,5,"In,Li,O,Sc,Si",Li4Sc3In(SiO3)8,mp-1222539
4.5774,-3.756872196874999,3,"La,O,Si",La2SiO5,mp-752717
4.5794999999999995,-3.193821267375477,4,"Na,O,Si,Zr",Na2ZrSi4O11,mp-6824
4.5797,-3.186593750429598,5,"In,Na,O,Sc,Si",Na4Sc3In(SiO3)8,mp-1221157
4.5798,-2.606806825833334,5,"Al,H,Li,O,Si",LiAlSiH2O5,mp-1205443
4.581099999999999,-3.023311522865854,5,"C,Ca,H,O,Si",Ca7Si6H4CO23,mp-733443
4.5816,-3.624159441071429,4,"Cl,O,Si,Sm",Sm3Si2ClO8,mp-23622
4.5823,-3.107361659304348,5,"Al,Cl,K,O,Si",K4Al3Si3ClO12,mp-23149
4.5845,-3.214198728874999,3,"Mg,O,Si",MgSiO3,mp-1196002
4.5847,-3.427818641,4,"Ba,Ca,O,Si",BaCa2(SiO3)3,mp-18216
4.586,-3.082131854102565,4,"Al,O,Si,Tl",AlTlSi3O8,mp-1228177
4.5863,-3.016714988921181,6,"Al,Hf,Na,O,P,Si",Na3HfAlSi(PO6)2,mp-2715255
4.587400000000001,-3.150838,3,"Mg,O,Si",Mg2SiO4,mp-554663
4.59,-2.946351956862494,4,"Cs,Li,O,Si",Cs4Li2(Si2O5)3,mp-562394
4.5903,-2.735295863949276,5,"Cl,Ga,Li,O,Si",Li4Ga3Si3ClO12,mp-554203
4.5916,-3.018257176249999,2,"O,Si",SiO2,mp-555676
4.594,-3.287697046557144,4,"Ca,K,O,Si",K2Ca4Si8O21,mp-1019746
4.5947,-3.338729840948275,5,"Ba,Na,O,Sc,Si",BaNaScSi2O7,mp-866298
4.5947,-2.6389072409282,6,"Al,Ca,H,Na,O,Si",Na2Ca2Al6Si9(H8O19)2,mp-1204100
4.5951,-3.1802107705,3,"Mg,O,Si",MgSiO3,mp-644879
4.5951,-2.955078727224458,6,"Al,Na,O,P,Sc,Si",Na7Sc2Al2SiP5O24,mp-2715610
4.5957,-3.624045520454544,3,"O,Si,Y",Y2Si2O7,mp-561531
4.596000000000001,-3.3941309285,4,"Al,Ca,O,Si",CaAl2SiO6,mp-1019587
4.5982,-3.444188032439024,4,"Ba,O,Si,Y",Ba9Y2(SiO4)6,mp-1019533
4.5993,-2.628363219319923,4,"Li,Na,O,Si",NaLi3SiO4,mp-559904
4.6022,-1.6826472414408862,4,"H,Na,O,Si",Na2Si(H5O4)2,mp-707840
4.6041,-3.02176319125,4,"Li,O,Si,Sr",SrLi2SiO4,mp-1191141
4.6043,-3.371930470208333,4,"Ca,Mg,O,Si",Ca2MgSi2O7,mp-559083
4.605,-3.255622690114941,5,"Al,Ca,Na,O,Si",NaCaAlSi2O7,mp-1221098
4.605699999999999,-3.4282547425,4,"Al,Ca,O,Si",CaAl2SiO6,mp-1019584
4.6073,-3.8274684203125022,3,"O,Si,Tm",Tm2SiO5,mp-17704
4.6078,-3.2213490909375,4,"Cl,O,Si,Sm",Sm3Si2Cl5O6,mp-556820
4.6080000000000005,-3.178974496586911,4,"Mg,Na,O,Si",Na2Mg5(Si2O5)6,mp-1221511
4.6088000000000005,-3.461198143749999,3,"Ca,O,Si",Ca2SiO4,mp-556942
4.609,-3.165751951165517,4,"Na,O,Si,Y",Na3Y(Si2O5)3,mp-1221246
4.6093,-3.072299916086957,4,"Ba,N,O,Si",Ba3Si6(NO6)2,mp-985697
4.611,-2.96158073722048,3,"Na,O,Si",Na6Si8O19,mp-554033
4.6114,-3.3246150149999982,4,"Ba,Be,O,Si",BaBeSiO4,mp-550751
4.612299999999999,-3.373994456904761,4,"Li,O,Sc,Si",LiScSiO4,mp-6224
4.619100000000001,-3.428106404,4,"Al,Ca,O,Si",CaAl2SiO6,mp-1019573
4.619199999999999,-3.244082909228448,6,"F,Mg,Na,O,Sc,Si",Na3Mg4ScSi8(O11F)2,mp-1173738
4.619999999999999,-3.43918600095238,3,"Ca,O,Si",Ca2SiO4,mp-560821
4.6251,-3.441226473,3,"O,Si,Sr",SrSiO3,mp-3978
4.6259000000000015,-3.141805308787879,4,"Al,Li,O,Si",Li2Al2SiO6,mp-1222720
4.6269,-3.120855346087849,6,"Hf,Na,O,P,Sc,Si",Na3HfScSi(PO6)2,mp-2715409
4.627000000000001,-3.286086676499999,4,"Ca,Mg,O,Si",CaMg(SiO3)2,mp-562517
4.6272,-3.146547323125,4,"Al,Ca,O,Si",CaAl2Si3O10,mp-1236884
4.6294,-3.360924786785713,4,"Ca,Mg,O,Si",CaMgSiO4,mp-6493
4.6298,-3.205377607855707,5,"Hf,Na,O,P,Si",Na3Hf2Si2PO12,mp-2713308
4.63,-3.4812814080721,5,"Ba,Na,O,Si,Sm",Ba3NaSm3(Si3O10)2,mp-1195058
4.6301,-3.097443346061968,6,"Al,Cl,Li,Na,O,Si",Na2Li2Al3Si3ClO12,mp-43030
4.6302,-3.0335081523,3,"K,O,Si",K2Si4O9,mp-8380
4.6316,-3.210379920499999,3,"Mg,O,Si",MgSiO3,mp-1020123
4.6319,-3.361976853214285,3,"Ba,O,Si",Ba2SiO4,mp-17612
4.6334,-3.357395217291667,3,"Ba,O,Si",BaSi2O5,mp-5224
4.6344,-3.00330622176162,6,"Al,Be,Cl,Na,O,Si",Na4BeAlSi4ClO12,mp-23151
4.6365,-3.583453498000001,5,"Al,Ca,O,Sc,Si",CaScAlSiO6,mp-1227097
4.6372,-3.21916074225,3,"Mg,O,Si",MgSiO3,mp-1199778
4.6373999999999995,-2.9873649715172412,3,"Na,O,Si",Na2Si4O9,mp-662605
4.6388,-1.55172632000862,4,"H,Na,O,Si",Na2SiH16O11,mp-504605
4.6395,-3.213125702857142,3,"Mg,O,Si",Mg2SiO4,mp-2895
4.6397,-3.2895021653965513,5,"F,Na,O,Si,Sm",Na5Sm4Si4O16F,mp-1192338
4.642499999999999,-2.969918619,3,"Mg,O,Si",MgSiO3,mp-4391
4.6427,-3.175639370762931,4,"Al,Na,O,Si",NaAl(SiO3)2,mp-1020661
4.6434,-3.004294195625,2,"O,Si",SiO2,mp-558931
4.6472999999999995,-3.208672257064039,5,"Hf,Na,O,P,Si",Na3Hf2Si2PO12,mp-2713249
4.650399999999999,-3.811239388125001,3,"Er,O,Si",Er2SiO5,mp-16993
4.6509,-3.790654651666666,3,"O,Si,Th",ThSiO4,mp-7651
4.6525,-3.147026776562501,4,"Ba,Cl,O,Si",Ba5Si(Cl3O2)2,mp-555087
4.6556,-3.464303285,4,"Ba,O,Si,Zr",BaZr(SiO3)3,mp-1214228
4.657,-3.640011067727833,5,"F,Na,O,Si,Sm",Na3Sm17Si12(O25F)2,mp-677015
4.659,-3.462348215,3,"Ca,O,Si",Ca3Si2O7,mp-585516
4.6591000000000005,-3.311082736708333,5,"F,K,La,O,Si",K5La4Si4O16F,mp-866662
4.6611,-3.243774927625,4,"Ca,Mg,O,Si",CaMg7(SiO3)8,mp-1227274
4.6624,-3.349459029594108,5,"Ba,Na,Nd,O,Si",BaNaNdSi2O7,mp-559384
4.6631,-3.323497476159482,7,"Al,Ca,F,Mg,Na,O,Si",NaCa2Mg5AlSi7(O11F)2,mp-1221134
4.6631,-3.261503409840732,7,"Ca,F,K,Mg,Na,O,Si",KNaCaMg5Si8(O11F)2,mp-1223435
4.6645,-3.303861107028985,4,"Ca,Li,O,Si",Li2Ca4Si4O13,mp-556137
4.6647,-2.615235490555556,3,"Li,O,Si",Li4SiO4,mp-685863
4.6662,-3.814613528229166,3,"Dy,O,Si",Dy2SiO5,mp-768317
4.6708,-3.404013206000001,3,"Ba,O,Si",BaSiO3,mp-776084
4.671099999999999,-2.9352379393130392,5,"Al,H,Na,O,Si",Na2AlSi3HO9,mp-706617
4.6713000000000005,-3.199159940294118,4,"Al,O,Rb,Si",Rb2Al2Si3O10,mp-975622
4.6716999999999995,-2.780915635499999,5,"Ca,H,O,Si,Zr",CaZrSi3H4O11,mp-1227600
4.6722,-2.868964610235294,4,"Ba,K,O,Si",K4Ba(SiO3)3,mp-976307
4.673799999999999,-3.665370961818182,3,"La,O,Si",La2Si2O7,mp-5974
4.6781,-3.4414730921428562,3,"Ca,O,Si",Ca2SiO4,mp-4180
4.6803,-3.069970506870315,6,"Al,Br,Cl,Na,O,Si",Na8Al6Si6BrClO24,mp-1220843
4.680400000000001,-3.670529781904762,4,"Nd,O,Si,Sr",SrNd4Si3O13,mp-1218195
4.6805,-3.430644291547618,4,"Ca,O,Si,Sr",SrCaSiO4,mp-554006
4.6831,-3.258679337499999,4,"C,Ca,O,Si",Ca5Si2CO11,mp-6796
4.6833,-2.901369190229884,3,"Na,O,Si",Na2Si3O7,mp-15113
4.6841,-3.378215464562499,5,"Ba,K,O,Si,Y",KBaYSi2O7,mp-559670
4.6846,-3.863396421979168,3,"Lu,O,Si",Lu2SiO5,mp-16969
4.6875,-3.441296365961538,4,"Al,O,Si,Sr",SrAl2(SiO4)2,mp-1205386
4.6876999999999995,-3.3018472113254322,5,"Cs,Er,F,O,Si",Cs2ErSi6O14F,mp-1195142
4.6887,-3.519879744642858,4,"Ba,Hf,O,Si",BaHf(SiO3)3,mp-1194160
4.6892,-3.365571821850574,6,"Ca,F,Na,O,Si,Zr",Na2CaZrSi2O7F2,mp-1210579
4.689599999999999,-3.231703675,4,"Cl,O,Si,Tb",Tb3Si2Cl5O6,mp-555097
4.6913,-3.512032591091954,7,"Ca,F,Na,O,Si,Y,Zr",Na2Ca4YZrSi4(O5F)3,mp-1210816
4.6934000000000005,-3.321365118452381,4,"Ba,Mg,O,Si",Ba3Mg(SiO4)2,mp-556703
4.6935,-3.190973626190476,4,"Al,Li,O,Si",LiAlSiO4,mp-558713
4.694100000000001,-2.983803500899014,5,"Al,H,Na,O,Si",NaAl3Si3(HO6)2,mp-1198448
4.6967,-3.207764201730559,5,"Hf,Na,O,P,Si",Na5Hf4Si3(PO8)3,mp-2714052
4.697500000000001,-3.081129688500749,5,"Al,Cl,Na,O,Si",Na4Al3Si3ClO12,mp-23145
4.6982,-3.180421095238096,4,"Al,Li,O,Si",LiAlSiO4,mp-1222553
4.6986,-3.46867952708725,5,"Ba,Na,Nd,O,Si",Ba3NaNd3(Si3O10)2,mp-559502
4.6987,-3.127845193249999,3,"Mg,O,Si",MgSiO3,mp-530986
4.6992,-3.180259891656951,5,"Hf,K,Na,O,Si",K3NaHf2(SiO4)3,mp-2716365
4.7001,-3.186058913535714,4,"Al,K,O,Si",KAlSiO4,mp-680374
4.7002,-3.22317130625,3,"Mg,O,Si",MgSiO3,mp-5834
4.7013,-2.788542796211685,4,"Cs,H,O,Si",CsSi2HO5,mp-1226125
4.701799999999999,-3.331758907304598,4,"Na,O,Si,Tb",NaTb(SiO3)2,mp-1198731
4.702,-3.798526289375006,3,"Ho,O,Si",Ho2SiO5,mp-17065
4.7023,-3.26999009925,4,"Ca,Mg,O,Si",CaMg3(SiO3)4,mp-1227106
4.7024,-3.442896293461538,4,"Al,O,Si,Sr",SrAl2(SiO4)2,mp-1218484
4.7028,-3.628211942678571,4,"Cl,O,Si,Y",Y3Si2ClO8,mp-558883
4.703,-3.122745594510344,4,"Mg,Na,O,Si",Na2Mg2(Si2O5)3,mp-12187
4.7044,-3.125093167125,4,"Ca,H,O,Si",Ca4Si3H2O11,mp-1197100
4.7048,-3.375359663214285,4,"Mg,O,Si,Sr",Sr3Mg(SiO4)2,mp-554641
4.7048,-2.6189274673,5,"Al,Ca,H,O,Si",CaAl2Si3H6O13,mp-1203998
4.7059000000000015,-3.316587696952107,5,"F,Na,O,Si,Tb",Na5Tb4Si4O16F,mp-1192492
4.7068,-2.9760130617314813,4,"K,Li,O,Si",KLiSi2O5,mp-558102
4.707999999999999,-3.427817503666667,3,"Ca,O,Si",CaSiO3,mp-561086
4.709,-3.321207601137931,4,"Na,O,Si,Y",NaY(SiO3)2,mp-560039
4.7096,-3.504254258636362,4,"O,Si,Sr,Zr",SrZrSi2O7,mp-17468
4.7097999999999995,-2.986505902695095,6,"Al,H,K,Na,O,Si",KNa3Al12Si12(HO6)8,mp-1205072
4.71,-3.278696745602041,4,"Ba,K,O,Si",K2Ba5(Si2O5)6,mp-1223764
4.7116,-3.563024256354166,4,"B,O,Pr,Si",Pr3Si2BO10,mp-1196034
4.7116,-2.873455969256978,5,"Al,Na,O,P,Si",Na7Al4SiP5O24,mp-2715583
4.7120999999999995,-3.210916266125,5,"In,Li,O,Sc,Si",Li4Sc3In(SiO3)8,mp-1222563
4.7121,-3.671023028712122,3,"O,Si,Y",Y2Si2O7,mp-581644
4.7126,-3.303112629999999,4,"Ca,Mg,O,Si",CaMgSiO4,mp-649595
4.7132000000000005,-3.14732338966133,4,"Al,Na,O,Si",NaAlSiO4,mp-560334
4.7135,-3.498697325086538,5,"Ca,F,K,O,Si",KCa7Si3(O4F)3,mp-1202104
4.7146,-3.340123225278845,5,"Al,Ba,K,O,Si",KBaAl3Si5O16,mp-677121
4.716,-2.8303796683333333,2,"O,Si",SiO2,mp-1071820
4.7197,-3.1913246046875,4,"Ca,H,O,Si",Ca6Si3H2O13,mp-554539
4.7198,-3.184671181143677,5,"Li,Na,O,Si,Y",Na2LiY(Si2O5)3,mp-14030
4.7203,-2.958265346375105,6,"Al,H,Mg,Na,O,Si",NaMgAl3Si8(HO6)4,mp-1094103
4.721500000000001,-3.182962402205357,4,"K,Nd,O,Si",K3NdSi7O17,mp-559608
4.721699999999999,-3.259284434166667,2,"O,Si",SiO2,mp-555483
4.7217,-3.020726983611111,2,"O,Si",SiO2,mp-556537
4.7227,-3.425678822596153,4,"Al,Ca,O,Si",CaAl2(SiO4)2,mp-6532
4.7271,-2.905090861920498,4,"Cs,Na,O,Si",CsNaSi2O5,mp-572951
4.729,-3.175454711568965,6,"Ca,Na,O,Sc,Si,Zn",NaCaScZn(SiO3)4,mp-684991
4.729699999999999,-3.426420772692307,4,"Al,Ca,O,Si",CaAl2(SiO4)2,mp-1227323
4.731,-3.040782182833308,5,"Al,Ca,H,O,Si",Ca2Al2Si(HO4)2,mp-1227593
4.7336,-3.427720254333334,3,"Ca,O,Si",CaSiO3,mp-17552
4.733700000000001,-3.425096944333334,3,"Ca,O,Si",CaSiO3,mp-4428
4.7346,-3.297985820102171,5,"Al,Ba,Na,O,Si",BaNa2Al4(SiO4)4,mp-6875
4.7346,-3.305739278875,4,"Ca,Mg,O,Si",Ca3Mg5(SiO3)8,mp-1227744
4.7348,-3.4683912396428562,3,"Ca,O,Si",Ca2SiO4,mp-2379939
4.7357,-3.7561577234375,3,"O,Si,Y",Y2SiO5,mp-554420
4.736099999999999,-3.120686940546181,6,"Hf,Na,O,P,Sc,Si",Na3HfScSi(PO6)2,mp-2715377
4.7366,-3.276063732741935,4,"F,Mg,O,Si",Mg10Si3(O7F2)2,mp-1194872
4.736600000000001,-2.994890560086412,6,"Al,H,K,Na,O,Si",KNaAl6Si6(HO6)4,mp-1197973
4.736800000000001,-2.991933193241174,6,"Al,H,K,Na,O,Si",KNaAl6Si6(HO6)4,mp-1201038
4.7372,-0.589272788809523,4,"C,H,O,Si",SiH12(CO)4,mp-1199165
4.737299999999999,-2.994802302229269,6,"Al,H,K,Na,O,Si",KNaAl6Si6(HO6)4,mp-1197226
4.7374,-3.244887420875,5,"Ca,Mg,Ni,O,Si",Ca4Mg3Si8NiO24,mp-1227614
4.7397,-2.5216153713095233,4,"Ca,H,O,Si",Ca3Si2(H3O5)2,mp-696156
4.7409,-3.192593183846154,4,"Ca,Li,O,Si",Li2Ca2Si2O7,mp-1020009
4.742100000000001,-3.368732915833334,3,"Ba,O,Si",Ba3Si5O13,mp-29223
4.742100000000001,-3.222704751249998,3,"Mg,O,Si",MgSiO3,mp-5026
4.745100000000001,-3.040449417333333,5,"Al,Ca,H,O,Si",Ca2Al2Si(HO4)2,mp-686748
4.7453,-3.291773420249999,5,"F,K,O,Sc,Si",K2ScSi4O10F,mp-557777
4.7454,-3.141419681428571,3,"Mg,O,Si",Mg2SiO4,mp-5639
4.745999999999999,-3.077182623194444,4,"Ca,H,O,Si",Ca3Si3(HO5)2,mp-1202207
4.7463999999999995,-3.229060918124998,4,"Cl,Dy,O,Si",Dy3Si2Cl5O6,mp-560593
4.7471,-3.238002110173077,4,"Al,K,O,Si",KAlSi3O8,mp-1223613
4.747299999999999,-3.370771094999999,6,"Ba,Ca,Mg,O,Si,Sr",Ba2Sr3CaMg2(SiO4)4,mp-1228510
4.7476,-3.3652290510714282,6,"Ba,Ca,Mg,O,Si,Sr",BaSrCaMg(SiO4)2,mp-1227705
4.748,-3.189225208543455,5,"K,Mg,Na,O,Si",KNaMg5(Si2O5)6,mp-690914
4.7495,-2.61614442604885,5,"Li,Na,O,Rb,Si",RbNaLi6(SiO4)2,mp-560653
4.7514,-3.3194081639521062,5,"Dy,F,Na,O,Si",Na5Dy4Si4O16F,mp-1192543
4.7537,-2.713585609817639,5,"Al,H,Na,O,Si",NaAlSi2H2O7,mp-676991
4.755699999999999,-3.370541077499999,6,"Ba,Ca,Mg,O,Si,Sr",Ba2Sr3CaMg2(SiO4)4,mp-1228542
4.7565,-2.949118028645832,4,"Li,Mg,O,Si",Li2MgSiO4,mp-1222742
4.757,-3.295326754731801,5,"Al,Ba,Na,O,Si",BaNa2Al4(SiO4)4,mp-686310
4.758,-3.54833001625,4,"Ba,O,Sc,Si",BaSc2Si3O10,mp-1194834
4.7582,-3.360721377187507,3,"Ba,O,Si",BaSi2O5,mp-3031
4.7585,-3.21811263486129,6,"K,Li,Na,O,Si,Zr",KNa2LiZr2(Si2O5)6,mp-851118
4.7585999999999995,-3.836669838750007,3,"Er,O,Si",Er2SiO5,mp-555983
4.759,-3.376693823214286,5,"Ba,Mg,O,Si,Sr",BaSr2Mg(SiO4)2,mp-1019558
4.7593,-3.3219412910632142,5,"F,Ho,Na,O,Si",Na5Ho4Si4O16F,mp-1192403
4.7600999999999996,-2.645625870850574,4,"H,Na,O,Si",Na2Si3(HO4)2,mp-698025
4.7605,-3.184763080916666,4,"Al,K,O,Si",KAlSiO4,mp-560173
4.7615,-2.952021454583333,4,"Li,Mg,O,Si",Li2MgSiO4,mp-11189
4.7633,-3.218253981,3,"Mg,O,Si",MgSiO3,mp-1020115
4.7635000000000005,-3.582640128499999,4,"Ca,Hf,O,Si",Ca3HfSi2O9,mp-15003
4.7646999999999995,-2.850307514999999,2,"O,Si",SiO2,mp-7905
4.7652,-3.21988388775,3,"Mg,O,Si",MgSiO3,mp-1020117
4.7661,-3.781171346562509,3,"O,Si,Y",Y2SiO5,mp-3520
4.7661999999999995,-3.2838643061111092,5,"F,O,Rb,Sc,Si",Rb2ScSi4O10F,mp-1195951
4.7677,-2.809672107268519,5,"B,Ca,H,O,Si",CaSiBHO5,mp-1201830
4.7684999999999995,-3.194926496083334,4,"Ca,K,O,Si",K2Ca3Si3O10,mp-1019745
4.768800000000001,-2.7847100628888892,4,"H,K,O,Si",KSi2HO5,mp-1201235
4.7695,-3.308357584554598,4,"Cs,O,Si,Th",Cs2Th(Si2O5)3,mp-1195679
4.7696000000000005,-3.299521337729885,5,"F,Na,O,Si,Y",Na5Y4Si4O16F,mp-557696
4.7697,-3.245689009728448,6,"Ca,Na,O,Sc,Si,Zn",Na3CaSc3Zn(SiO3)8,mp-1221261
4.77,-3.150132958201667,5,"K,Li,Mg,O,Si",K3LiMg4(Si2O5)6,mp-694935
4.77,-3.163040641932184,4,"Dy,Na,O,Si",Na3Dy(Si2O5)3,mp-555604
4.77,-2.795352360188578,4,"Be,Na,O,Si",Na2BeSiO4,mp-6236
4.770399999999999,-3.642563102962962,4,"Ba,Ho,O,Si",BaHo4Si5O17,mp-1195686
4.7758,-3.710467645625,3,"Nd,O,Si",Nd2SiO5,mp-560132
4.7764,-3.603361256590908,3,"Nd,O,Si",Nd2Si2O7,mp-18130
4.7787,-3.466854439516129,3,"Ca,O,Si",Ca8Si5O18,mp-1019570
4.7791999999999994,-3.287025233125,3,"Ca,O,Si",CaSi2O5,mp-29755
4.7797,-3.223359357250002,3,"Mg,O,Si",MgSiO3,mp-3470
4.7813,-3.452259155961539,4,"Al,Ba,O,Si",BaAl2(SiO4)2,mp-17979
4.782,-3.651867641851852,4,"Ba,Er,O,Si",BaEr4Si5O17,mp-1195598
4.7822,-3.128192425124999,4,"Mg,O,Rb,Si",Rb2MgSi5O12,mp-1020860
4.782599999999999,-3.295185041398465,5,"Al,Na,O,Si,Sr",Na2SrAl4(SiO4)4,mp-556356
4.7841000000000005,-2.6748830125925913,3,"Li,O,Si",Li4SiO4,mp-11737
4.7841000000000005,-3.11806652385,4,"K,Mg,O,Si",K2MgSi5O12,mp-667292
4.784800000000001,-3.238604710961538,4,"Al,O,Rb,Si",RbAlSi3O8,mp-1219617
4.7889,-2.961274072523512,4,"Be,Na,O,Si",Na2Be(SiO3)2,mp-556013
4.7892,-3.513781295833332,4,"O,Pr,Si,Y",PrYSi2O7,mp-1179961
4.789899999999999,-3.222271184287356,4,"Cs,O,Si,Zr",Cs2Zr(SiO3)3,mp-6694
4.7908,-3.363684869814814,5,"F,Li,O,Si,Sr",Sr2LiSiO4F,mp-556066
4.7921,-2.783280128711686,4,"Cs,H,O,Si",CsSi2HO5,mp-557780
4.7924,-2.868871022561063,4,"B,Cs,O,Si",Cs2SiB4O9,mp-1226151
4.792400000000001,-3.193766454875089,5,"Mg,Na,O,Rb,Si",RbNaMg5(Si2O5)6,mp-1173467
4.7926,-3.220523215249999,3,"Mg,O,Si",MgSiO3,mp-1020361
4.793100000000001,-3.060228327196402,5,"Al,Br,Na,O,Si",Na4Al3Si3BrO12,mp-23147
4.7932999999999995,-3.326932682063217,5,"Er,F,Na,O,Si",Na5Er4Si4O16F,mp-1192584
4.7935,-3.284178697499999,4,"C,O,Si,Y",Y2SiCO7,mp-556661
4.796200000000001,-3.20280941952381,4,"Al,Li,O,Si",LiAlSiO4,mp-1222444
4.7965,-3.025782889166667,2,"O,Si",SiO2,mp-556788
4.7966999999999995,-3.7132802795454642,3,"O,Si,Tm",Tm2Si2O7,mp-1095467