band_gap,formation_energy_per_atom,nelements,elements,formula,material_id
5.2827,-2.925861073223522,5,"Be,H,Na,O,Si",NaBeSi3HO8,mp-556001
5.2839,-3.596297815277777,4,"Be,Lu,O,Si",Lu2Be2SiO7,mp-1210829
5.2841000000000005,-3.722353647647058,4,"F,Ho,O,Si",Ho3Si3O10F,mp-16165
5.29,-3.009139941111111,2,"O,Si",SiO2,mp-558733
5.2901,-2.024223779612069,4,"Ba,O,S,Si",BaSi(S2O7)3,mp-1201400
5.2928,-3.016334074561928,5,"Al,Na,O,S,Si",Na8Al6Si6SO28,mp-2902906
5.310200000000001,-3.076902437187501,3,"Mg,O,Si",MgSi2O5,mp-1020114
5.3103,-3.195442282407409,2,"O,Si",SiO2,mp-1205213
5.3161,-3.2476973001388902,2,"O,Si",SiO2,mp-600065
5.321,-3.637195456136363,3,"O,Si,Sm",Sm2Si2O7,mp-17235
5.3233000000000015,-3.675094839090914,3,"Ho,O,Si",Ho2Si2O7,mp-18662
5.3233999999999995,-3.051882602891666,4,"B,K,O,Si",KSi2BO6,mp-1019889
5.33,-2.513501417672077,5,"C,K,O,P,Si",KSiPCO7,mp-772843
5.3322,-3.267593778275862,4,"Al,Be,O,Si",Be3Al2(SiO3)6,mp-6030
5.3348,-2.3491109971875,4,"H,Mg,O,Si",MgSi(HO2)2,mp-1078468
5.337000000000001,-2.489133285320196,5,"C,Na,O,P,Si",NaSiPCO7,mp-1101475
5.3393,-3.597782614583334,4,"Be,O,Si,Tm",Tm2Be2SiO7,mp-1207992
5.3446,-3.591676005833333,4,"Be,Er,O,Si",Er2Be2SiO7,mp-1212878
5.3537,-1.975817691066666,4,"K,O,S,Si",K2Si(S2O7)3,mp-1019785
5.3545,-3.191422131666667,2,"O,Si",SiO2,mp-555147
5.3551,-2.736484309428571,4,"O,P,Rb,Si",Rb2SiP4O13,mp-557355
5.3553,-3.071139196580459,4,"B,Na,O,Si",NaSi3BO8,mp-696416
5.355500000000001,-3.309963715592105,5,"Al,F,H,O,Si",Al4Si2H(O3F)3,mp-1247835
5.3594,-3.077189366597222,3,"Li,O,Si",Li2Si3O7,mp-555899
5.3597,-3.136276236979166,2,"O,Si",SiO2,mp-683970
5.3614999999999995,-2.311755324060642,5,"Be,H,Na,O,Si",Na2BeSi4(H4O7)2,mp-1198346
5.3645,-3.25362428,2,"O,Si",SiO2,mp-7087
5.3649000000000004,-3.252280143333333,2,"O,Si",SiO2,mp-8352
5.368399999999999,-3.194587714333333,4,"Al,Li,O,Si",LiAl(SiO3)2,mp-6340
5.3706,-3.605886440757581,3,"O,Pr,Si",Pr2Si2O7,mp-5913
5.373,-3.242258592395833,4,"Al,Li,O,Si",LiAl(Si2O5)2,mp-1202325
5.373000000000001,-2.557380680736607,4,"H,O,P,Si",SiPHO5,mp-1202714
5.3784,-3.254188240208333,2,"O,Si",SiO2,mp-559347
5.3797000000000015,-2.949310692638889,5,"Al,Be,H,O,Si",BeAlSiHO5,mp-759686
5.380199999999999,-3.217925816388888,2,"O,Si",SiO2,mp-600026
5.380599999999999,-0.8085316775735291,6,"Al,C,Cl,H,O,Si",AlSiH9C3Cl2O,mp-24308
5.3812,-2.5590615675,3,"H,O,Si",Si2H2O5,mp-626083
5.381399999999999,-3.647698447499999,3,"O,Si,Y",Y2Si2O7,mp-17404
5.383500000000001,-3.693966157647059,4,"F,O,Si,Y",Y3Si3O10F,mp-14630
5.3836,-3.184553575833334,2,"O,Si",SiO2,mp-556994
5.3845,-3.025952776666666,2,"O,Si",SiO2,mp-32667
5.3872,-3.2593559183333323,2,"O,Si",SiO2,mp-555891
5.390499999999999,-2.9325587756018523,5,"B,Ca,H,O,Si",CaSiBHO5,mp-554371
5.3918,-3.052513583007184,4,"B,Cs,O,Si",CsSi2BO6,mp-1019719
5.3927,-3.255151089999999,2,"O,Si",SiO2,mp-639463
5.3948,-3.253802676666667,2,"O,Si",SiO2,mp-560527
5.3956,-1.872398666730769,5,"F,H,O,Si,Zn",ZnSiH12(OF)6,mp-40134
5.4024,-0.7272383674324321,5,"C,H,N,O,Si",SiH16C8(NO2)4,mp-1194877
5.4031,-3.151901765740739,4,"B,Ba,O,Si",Ba3Si2(B3O8)2,mp-1019526
5.403799999999999,-3.3768698634375,3,"Al,O,Si",Al2SiO5,mp-5065
5.4117,-3.25690691,2,"O,Si",SiO2,mp-600000
5.4127,-3.123226568055556,2,"O,Si",SiO2,mp-556963
5.4139,-2.904036032697045,4,"B,Na,O,Si",NaSiBO4,mp-554947
5.414,-3.011007265185186,3,"Li,O,Si",Li2Si2O5,mp-3552
5.415499999999999,-3.013996862,3,"Mg,O,Si",MgSiO3,mp-3547
5.4216,-3.211568511025641,4,"Al,Li,O,Si",LiAlSi3O8,mp-1222571
5.4221,-3.250322027916667,2,"O,Si",SiO2,mp-600045
5.4223,-3.243759347395833,4,"Al,Li,O,Si",LiAl(Si2O5)2,mp-6442
5.4244,-3.254994389722223,2,"O,Si",SiO2,mp-560826
5.424499999999999,-3.260820557499999,2,"O,Si",SiO2,mp-7648
5.429,-1.9115868680357142,4,"H,Mg,O,Si",MgSi(HO)6,mp-1192407
5.429,-3.131187268703704,6,"C,Ca,H,O,Si,Y",Ca2Y2Si4H2CO16,mp-720719
5.4299,-3.255533581666667,2,"O,Si",SiO2,mp-600004
5.4377,-3.261573869166666,2,"O,Si",SiO2,mp-559091
5.4397,-3.251669315416666,2,"O,Si",SiO2,mp-600005
5.445699999999999,-2.717652434564175,6,"B,H,Li,Na,O,Si",NaLiSiB3HO8,mp-558267
5.447599999999999,-3.100148619722223,2,"O,Si",SiO2,mp-1179529
5.449199999999999,-3.2516248575,2,"O,Si",SiO2,mp-639734
5.451799999999999,-3.256301328333334,2,"O,Si",SiO2,mp-1188220
5.453399999999999,-3.122293324927536,5,"Al,Cl,Li,O,Si",Li4Al3Si3ClO12,mp-23648
5.455999999999999,-2.75004525442857,3,"O,P,Si",SiP2O7,mp-18293
5.4583,-3.055913085942308,4,"Al,K,O,Si",KAlSi3O8,mp-1223534
5.4615,-3.249937378333333,2,"O,Si",SiO2,mp-600037
5.462099999999999,-3.26604966375,3,"Al,O,Si",Al2SiO5,mp-9516
5.4636,-3.251736823541667,2,"O,Si",SiO2,mp-600041
5.4639,-2.8286129189752263,5,"B,Ca,H,O,Si",Ca4Si3B5(HO4)5,mp-1227188
5.4646,-3.1777884233333342,2,"O,Si",SiO2,mp-557134
5.4674,-3.2505974675,2,"O,Si",SiO2,mp-600002
5.469099999999999,-2.8569177898994242,4,"B,Na,O,Si",NaSiBO4,mp-1247561
5.471999999999999,-3.130573247083333,2,"O,Si",SiO2,mp-683947
5.476000000000001,-2.795259943819444,4,"Al,H,O,Si",Al3Si2H3O10,mp-24601
5.4771,-3.242059416041667,2,"O,Si",SiO2,mp-1203655
5.4799,-3.010651051875,2,"O,Si",SiO2,mp-555960
5.485200000000001,-3.256047028611111,2,"O,Si",SiO2,mp-600029
5.4877,-3.264115334583334,2,"O,Si",SiO2,mp-556961
5.4895,-3.230908523888887,2,"O,Si",SiO2,mp-559928
5.4986999999999995,-3.256982102333334,2,"O,Si",SiO2,mp-600052
5.4995,-3.253756126666667,2,"O,Si",SiO2,mp-557118
5.5035,-2.910690842379585,4,"B,Na,O,Si",NaSiBO4,mp-556740
5.503699999999999,-3.267460600833333,2,"O,Si",SiO2,mp-6945
5.5053,-3.2553473116666662,2,"O,Si",SiO2,mp-615993
5.5062000000000015,-3.141331724999999,2,"O,Si",SiO2,mp-1265115
5.5081,-3.2675252075,2,"O,Si",SiO2,mp-7029
5.5087,-1.9526347095086192,4,"Na,O,S,Si",Na2Si(S2O7)3,mp-1020159
5.5106,-3.191551080583333,4,"Al,Li,O,Si",LiAl(SiO3)2,mp-542874
5.5109,-3.265922550833333,2,"O,Si",SiO2,mp-555235
5.510999999999999,-3.283559422823276,6,"Be,Ca,F,Na,O,Si",NaCaBeSi2O6F,mp-560721
5.5156,-2.569457766944444,3,"H,O,Si",Si2H2O5,mp-626037
5.5172,-3.249867125357142,2,"O,Si",SiO2,mp-653763
5.5201,-3.25534563375,2,"O,Si",SiO2,mp-555700
5.522,-3.25519786375,2,"O,Si",SiO2,mp-554258
5.5233,-3.198053383333333,4,"B,Ba,O,Si",BaSi2(BO4)2,mp-555387
5.523499999999999,-3.238678885166666,2,"O,Si",SiO2,mp-600006
5.5245,-3.239017493250001,2,"O,Si",SiO2,mp-600076
5.5245,-3.241795045666668,2,"O,Si",SiO2,mp-639705
5.5254,-2.202282882958333,7,"Al,Ca,F,H,O,S,Si",Ca4AlSiH24SO16F13,mp-1228916
5.5255,-1.920511284464285,4,"H,Mg,O,Si",MgSi(HO)6,mp-1193955
5.5258,-3.102613878888889,2,"O,Si",SiO2,mp-1353259
5.5295,-3.22127844125,2,"O,Si",SiO2,mp-1201738
5.5301,-3.25399227,2,"O,Si",SiO2,mp-1179454
5.5311,-3.263754841666668,2,"O,Si",SiO2,mp-6922
5.5318000000000005,-3.263757990555557,2,"O,Si",SiO2,mp-10851
5.5322,-3.254697512638888,2,"O,Si",SiO2,mp-1201887
5.5344,-3.256519518137255,2,"O,Si",SiO2,mp-8602
5.5358,-3.253281090416666,2,"O,Si",SiO2,mp-600084
5.537999999999999,-3.26570421,2,"O,Si",SiO2,mp-669426
5.5383,-3.258716410357143,2,"O,Si",SiO2,mp-667383
5.540699999999999,-3.248124998125,2,"O,Si",SiO2,mp-600111
5.5458,-3.259105474166666,2,"O,Si",SiO2,mp-11684
5.5462,-3.249977835,2,"O,Si",SiO2,mp-600023
5.5474,-3.2583776395833333,2,"O,Si",SiO2,mp-600003
5.5502,-3.266085629305555,2,"O,Si",SiO2,mp-640556
5.5504,-3.265347307499999,2,"O,Si",SiO2,mp-542814
5.5527,-3.232654774444445,2,"O,Si",SiO2,mp-600039
5.5535,-1.418268479772727,6,"C,F,H,O,S,Si",SiH2CS(OF)3,mp-1201229
5.5552,-3.2513735413888902,2,"O,Si",SiO2,mp-600071
5.5568,-3.254891058888888,2,"O,Si",SiO2,mp-561351
5.559,-3.255479562098765,2,"O,Si",SiO2,mp-532105
5.5604,-3.231327901666665,2,"O,Si",SiO2,mp-546546
5.5607,-3.255606931111112,2,"O,Si",SiO2,mp-600018
5.5609,-1.497082470699999,6,"C,F,H,N,O,Si",SiH10C2N4(OF3)2,mp-722686
5.5612,-3.253923577916668,2,"O,Si",SiO2,mp-557211
5.562,-3.255606834197531,2,"O,Si",SiO2,mp-530546
5.5626,-2.2985048831249992,3,"Cl,O,Si",SiCl2O,mp-23079
5.5638000000000005,-1.192554487804879,6,"C,F,H,N,O,Si",SiH18C4N8(O2F3)2,mp-720721
5.5639,-3.248172124166666,2,"O,Si",SiO2,mp-639478
5.5652,-2.286550032916667,3,"Cl,O,Si",SiCl2O,mp-23563
5.565300000000001,-3.204975310833333,2,"O,Si",SiO2,mp-556662
5.5665,-3.242524318888889,2,"O,Si",SiO2,mp-600109
5.568099999999999,-3.2610372812499993,2,"O,Si",SiO2,mp-556454
5.5687999999999995,-3.259402687777778,2,"O,Si",SiO2,mp-557933
5.5695,-3.30665925,4,"Ba,Be,O,Si",BaBe2Si2O7,mp-12797
5.5709,-3.254960442083334,2,"O,Si",SiO2,mp-559313
5.571899999999999,-2.82826644017857,4,"Al,H,O,Si",AlSiHO4,mp-643829
5.5806000000000004,-3.251989495555557,2,"O,Si",SiO2,mp-557004
5.5809,-2.086439217115384,3,"Cl,O,Si",Si3(Cl4O)2,mp-30224
5.586699999999999,-3.25731407375,2,"O,Si",SiO2,mp-555521
5.5867,-3.246383286491228,2,"O,Si",SiO2,mp-1199998
5.5868,-3.266257846388887,2,"O,Si",SiO2,mp-733790
5.5882000000000005,-3.265169314166667,2,"O,Si",SiO2,mp-972808
5.5887,-3.26345831625,2,"O,Si",SiO2,mp-8059
5.5917,-3.244101313555555,2,"O,Si",SiO2,mp-1257168
5.5922,-3.254401612083333,2,"O,Si",SiO2,mp-560336
5.5951,-3.235629854652778,2,"O,Si",SiO2,mp-680222
5.5973,-3.259933561944445,2,"O,Si",SiO2,mp-556218
5.5993,-2.964120770208333,4,"Be,Li,O,Si",Li2BeSiO4,mp-554159
5.599699999999999,-3.252672313333333,2,"O,Si",SiO2,mp-562490
5.6007,-3.169205561041666,2,"O,Si",SiO2,mp-560152
5.6012,-1.031081440769232,4,"C,N,O,Si",SiC4(NO)4,mp-1198772
5.6019,-3.2380276938888892,2,"O,Si",SiO2,mp-560973
5.6022,-2.8717827075793663,3,"O,P,Si",Si5P6O25,mp-3273
5.6023,-3.249033795,2,"O,Si",SiO2,mp-600085
5.6043,-3.25178817297619,2,"O,Si",SiO2,mp-561181
5.606400000000001,-3.2494789109375,2,"O,Si",SiO2,mp-554755
5.6066,-3.256096763148149,2,"O,Si",SiO2,mp-558326
5.606999999999999,-3.260776771666666,2,"O,Si",SiO2,mp-556654
5.6096,-3.25888078151515,2,"O,Si",SiO2,mp-680204
5.6097,-3.256951121666668,2,"O,Si",SiO2,mp-559550
5.6098,-3.219747076666666,2,"O,Si",SiO2,mp-556985
5.610600000000001,-3.263423301666668,2,"O,Si",SiO2,mp-559872
5.611800000000001,-3.258455695119047,2,"O,Si",SiO2,mp-662706
5.6129,-3.251487015416666,2,"O,Si",SiO2,mp-554543
5.6152000000000015,-3.261632047083333,2,"O,Si",SiO2,mp-557264
5.6155,-3.265365126666667,2,"O,Si",SiO2,mp-554573
5.618399999999999,-3.25193751372549,2,"O,Si",SiO2,mp-561090
5.6186,-3.25024856,2,"O,Si",SiO2,mp-639695
5.6195,-3.253104106369047,2,"O,Si",SiO2,mp-667377
5.6213,-3.258729536111111,2,"O,Si",SiO2,mp-600033
5.6227,-3.236823410555556,2,"O,Si",SiO2,mp-639480
5.623200000000001,-3.243577437962964,2,"O,Si",SiO2,mp-600078
5.6238,-3.306300109791665,4,"Ba,Be,O,Si",BaBe2Si2O7,mp-6383
5.6257,-3.255104522440475,2,"O,Si",SiO2,mp-667376
5.626799999999999,-3.252659976666665,2,"O,Si",SiO2,mp-558351
5.627,-3.255925031666667,2,"O,Si",SiO2,mp-554243
5.6273,-3.270059158333334,2,"O,Si",SiO2,mp-12787
5.6304,-3.249457960833334,2,"O,Si",SiO2,mp-1179447
5.6325,-2.421384107608696,3,"Cl,O,Si",Si6Cl10O7,mp-542214
5.6328,-3.251188911666666,2,"O,Si",SiO2,mp-554267
5.6355,-3.255319074166665,2,"O,Si",SiO2,mp-555251
5.6379,-3.252613091944445,2,"O,Si",SiO2,mp-557881
5.6413,-3.25381874904762,2,"O,Si",SiO2,mp-600055
5.6423,-3.262027181458334,2,"O,Si",SiO2,mp-556882
5.6424,-3.22619880375,2,"O,Si",SiO2,mp-553993
5.642899999999999,-3.20021207375,2,"O,Si",SiO2,mp-558200
5.6441,-0.8349059217013891,6,"C,F,H,N,O,Si",SiH21C6N2OF5,mp-849790
5.6449,-3.264493386666667,2,"O,Si",SiO2,mp-557837
5.645099999999999,-3.250543761309524,2,"O,Si",SiO2,mp-639558
5.6471,-3.259668037500001,2,"O,Si",SiO2,mp-558891
5.6518,-3.250247887129631,2,"O,Si",SiO2,mp-1204057
5.652,-3.256354547916666,2,"O,Si",SiO2,mp-600016
5.6567,-3.255879317166667,2,"O,Si",SiO2,mp-600031
5.66,-3.057541708472222,2,"O,Si",SiO2,mp-559273
5.660399999999999,-3.266073725,2,"O,Si",SiO2,mp-554089
5.6607,-3.207308364999999,2,"O,Si",SiO2,mp-557873
5.6614,-3.060296863541667,2,"O,Si",SiO2,mp-558301
5.6644000000000005,-3.194144759102563,4,"B,Ca,O,Si",CaSi2(BO4)2,mp-6419
5.6645,-3.249235487166667,2,"O,Si",SiO2,mp-1249969
5.666399999999999,-3.233700644666667,2,"O,Si",SiO2,mp-600068
5.6668,-3.258587647666667,2,"O,Si",SiO2,mp-558115
5.6677,-3.257945191138889,2,"O,Si",SiO2,mp-1250639
5.6695,-3.272205639444445,2,"O,Si",SiO2,mp-6930
5.6711,-3.255893903194445,2,"O,Si",SiO2,mp-560809
5.6739999999999995,-2.6963053089285722,3,"Cl,O,Si",Si2Cl2O3,mp-28959
5.6745,-3.260478789117646,2,"O,Si",SiO2,mp-1258196
5.677099999999999,-3.231052067222221,2,"O,Si",SiO2,mp-559962
5.6778,-3.165723067083333,2,"O,Si",SiO2,mp-556088
5.6779,-3.2607024966666662,2,"O,Si",SiO2,mp-16964
5.6798,-3.259030503749999,2,"O,Si",SiO2,mp-557465
5.68,-3.207356374102564,4,"B,O,Si,Sr",SrSi2(BO4)2,mp-6032
5.680400000000001,-3.251895117777777,2,"O,Si",SiO2,mp-600007
5.6806,-3.24741895236111,4,"B,Ca,O,Si",Ca2SiB2O7,mp-752851
5.6808,-3.251158346249999,2,"O,Si",SiO2,mp-600051
5.682499999999999,-3.252066709791666,2,"O,Si",SiO2,mp-639724
5.683,-3.207331576111112,2,"O,Si",SiO2,mp-558564
5.6839,-3.233076264166667,2,"O,Si",SiO2,mp-558374
5.6843,-3.166215164791667,2,"O,Si",SiO2,mp-1200685
5.6869,-3.252307825364583,2,"O,Si",SiO2,mp-1268079
5.6876999999999995,-3.248647573472224,2,"O,Si",SiO2,mp-639733
5.6882,-3.257615022898549,2,"O,Si",SiO2,mp-639512
5.6883,-3.250514814027779,2,"O,Si",SiO2,mp-600028
5.689,-3.254438631481482,2,"O,Si",SiO2,mp-1249332
5.6892,-3.254659047202381,2,"O,Si",SiO2,mp-1250551
5.689599999999999,-3.267183893333333,2,"O,Si",SiO2,mp-546794
5.6913,-3.253195799791667,2,"O,Si",SiO2,mp-555211
5.6921,-3.2557651090625,2,"O,Si",SiO2,mp-553945
5.6926000000000005,-0.5385853005357141,5,"C,H,N,O,Si",SiH3CNO,mp-1193294
5.6942,-3.252928617812499,2,"O,Si",SiO2,mp-646895
5.6953,-3.5297768330555552,4,"Al,F,O,Si",Al2Si(O2F)2,mp-6280
5.696199999999999,-3.256902887083333,2,"O,Si",SiO2,mp-556469
5.697,-3.254122873518519,2,"O,Si",SiO2,mp-600091
5.6971,-3.244730174427083,2,"O,Si",SiO2,mp-600080
5.6978,-3.25277012922619,2,"O,Si",SiO2,mp-1249637
5.700699999999999,-3.256908397881944,2,"O,Si",SiO2,mp-1200292
5.7044999999999995,-3.253925137500001,2,"O,Si",SiO2,mp-639506
5.7073,-3.243165466944444,2,"O,Si",SiO2,mp-560203
5.7108,-3.251316406666667,2,"O,Si",SiO2,mp-600061
5.7109000000000005,-3.214232430833335,2,"O,Si",SiO2,mp-559740
5.7151,-3.252491369375001,2,"O,Si",SiO2,mp-17279
5.719,-3.27283134388889,2,"O,Si",SiO2,mp-7000
5.7191,-3.263110239166666,2,"O,Si",SiO2,mp-985590
5.72,-3.255982241458333,2,"O,Si",SiO2,mp-644923
5.7214,-3.201431672638889,2,"O,Si",SiO2,mp-557591
5.7215,-3.252827641979166,2,"O,Si",SiO2,mp-560064
5.7235,-3.249919229285715,2,"O,Si",SiO2,mp-600053
5.725199999999999,-3.2609318675,2,"O,Si",SiO2,mp-554151
5.7256,-3.2483584662499982,2,"O,Si",SiO2,mp-600057
5.7277000000000005,-3.25173815625,2,"O,Si",SiO2,mp-639511
5.7283,-3.250691137638888,2,"O,Si",SiO2,mp-639741
5.7361,-3.257033750277777,2,"O,Si",SiO2,mp-18280
5.7371,-3.251426622222222,2,"O,Si",SiO2,mp-1250261
5.738099999999999,-3.194217924722222,2,"O,Si",SiO2,mp-558569
5.739199999999999,-2.847125684558824,4,"Be,H,O,Si",Be4Si2H2O9,mp-707304
5.7415,-3.251251415208333,2,"O,Si",SiO2,mp-1248957
5.7440999999999995,-3.251061820833333,2,"O,Si",SiO2,mp-600022
5.748299999999999,-2.675550258230518,5,"Ba,H,O,P,Si",BaSiP4(HO7)2,mp-722278
5.748799999999999,-3.274981406875,3,"Al,O,Si",Al2SiO5,mp-9515
5.7489,-3.255688501666667,2,"O,Si",SiO2,mp-600027
5.7504,-2.7767051129285703,3,"O,P,Si",SiP2O7,mp-554758
5.7534,-3.254886972187499,2,"O,Si",SiO2,mp-600098
5.7551,-3.252113257222223,2,"O,Si",SiO2,mp-1256614
5.7565,-3.264350820416666,2,"O,Si",SiO2,mp-985570
5.756600000000001,-3.25127456111111,2,"O,Si",SiO2,mp-600032
5.7614,-3.249857261875,2,"O,Si",SiO2,mp-555165
5.765000000000001,-3.256150079345237,2,"O,Si",SiO2,mp-667373
5.7666,-2.609343011095679,5,"B,Ca,H,O,Si",Ca2SiB5H5O14,mp-850516
5.7667,-3.2550928184375,2,"O,Si",SiO2,mp-667368
5.771100000000001,-3.255937442291666,2,"O,Si",SiO2,mp-560941
5.7724,-3.175410817083333,2,"O,Si",SiO2,mp-560131
5.774,-3.2569215118750012,2,"O,Si",SiO2,mp-555556
5.7780000000000005,-2.911890841506568,4,"B,Na,O,Si",NaSiBO4,mp-558181
5.7794,-3.255179516597223,2,"O,Si",SiO2,mp-1195265
5.7859,-3.255578040625,2,"O,Si",SiO2,mp-560920
5.7928,-3.113965055,3,"Mg,O,Si",MgSiO3,mp-5924
5.793,-3.06835828375,2,"O,Si",SiO2,mp-1365799
5.7946,-3.238069981333334,2,"O,Si",SiO2,mp-639682
5.7952,-2.781827299928571,3,"O,P,Si",SiP2O7,mp-18157
5.7956,-3.249933492745097,2,"O,Si",SiO2,mp-1249090
5.7959,-3.17878928788961,4,"O,P,Si,Y",Y2SiP4O15,mp-1020615
5.7962,-3.255733744166666,2,"O,Si",SiO2,mp-559360
5.7968,-3.236209193666667,2,"O,Si",SiO2,mp-600001
5.7972,-3.2574067163194442,2,"O,Si",SiO2,mp-558947
5.8012999999999995,-3.236222642333333,2,"O,Si",SiO2,mp-600038
5.8048,-2.780858875428571,3,"O,P,Si",SiP2O7,mp-4769
5.8166,-3.253618028888889,2,"O,Si",SiO2,mp-600015
5.819199999999999,-3.257480649166666,2,"O,Si",SiO2,mp-560708
5.8205,-3.25517483970238,2,"O,Si",SiO2,mp-667371
5.8262,-3.252532844277778,2,"O,Si",SiO2,mp-600083
5.8262,-3.176623356904762,3,"Be,O,Si",Be2SiO4,mp-3347
5.8275999999999994,-3.236673260208333,2,"O,Si",SiO2,mp-600049
5.8291,-3.168881172916666,2,"O,Si",SiO2,mp-554175
5.832599999999999,-3.254527223518518,2,"O,Si",SiO2,mp-560998
5.8344000000000005,-1.998084907692307,5,"F,H,Mg,O,Si",MgSiH12(OF)6,mp-759312
5.8369,-3.248888057343749,2,"O,Si",SiO2,mp-600054
5.8378,-3.245716532222223,2,"O,Si",SiO2,mp-560155
5.8382000000000005,-3.250911555694444,2,"O,Si",SiO2,mp-32895
5.8413,-3.251443987222224,2,"O,Si",SiO2,mp-17909
5.8422,-3.253222445625,2,"O,Si",SiO2,mp-600072
5.8431000000000015,-3.344832116266667,6,"Be,Ca,F,Li,O,Si",Li2Ca3Be3Si3(O6F)2,mp-560036
5.8434,-3.061145014375,4,"B,Li,O,Si",LiSi2BO6,mp-556531
5.847799999999999,-3.226541421736111,2,"O,Si",SiO2,mp-555791
5.8478,-3.250526616666667,2,"O,Si",SiO2,mp-555740
5.8482,-3.256314640763888,2,"O,Si",SiO2,mp-554682
5.8489,-3.239390451785713,2,"O,Si",SiO2,mp-600067
5.8577,-3.255375912013888,2,"O,Si",SiO2,mp-600060
5.8629999999999995,-3.255766842777778,2,"O,Si",SiO2,mp-554946
5.8634,-3.255250936296297,2,"O,Si",SiO2,mp-15078
5.8721,-3.235567825462964,2,"O,Si",SiO2,mp-639748
5.873200000000001,-3.252150236111111,2,"O,Si",SiO2,mp-556591
5.8743,-3.24084198125,2,"O,Si",SiO2,mp-557930
5.8759000000000015,-3.26097193952381,2,"O,Si",SiO2,mp-651707
5.8759999999999994,-3.249780961145833,2,"O,Si",SiO2,mp-600070
5.882899999999999,-3.248780622083333,2,"O,Si",SiO2,mp-600024
5.897799999999999,-3.256373542592593,2,"O,Si",SiO2,mp-558025
5.9005,-3.20273789625,2,"O,Si",SiO2,mp-600050
5.9023,-3.201949248194445,2,"O,Si",SiO2,mp-557024
5.9178,-2.509711120043289,5,"C,Li,O,P,Si",LiSiPCO7,mp-768161
5.9181,-3.2553963137500013,2,"O,Si",SiO2,mp-600063
5.9287,-3.2513156152083322,2,"O,Si",SiO2,mp-557894
5.9289000000000005,-3.210682514166667,2,"O,Si",SiO2,mp-1256499
5.974,-3.254014431875001,2,"O,Si",SiO2,mp-556262
5.977,-3.255455511111112,2,"O,Si",SiO2,mp-600014
5.979699999999999,-3.259422532647059,2,"O,Si",SiO2,mp-600059
6.021100000000001,-3.183927429999999,2,"O,Si",SiO2,mp-558203
6.0565,-2.969780010208333,4,"Be,Li,O,Si",Li2BeSiO4,mp-8070
6.145300000000001,-3.128396516527777,2,"O,Si",SiO2,mp-600096
6.159,-1.579747979,5,"F,H,N,O,Si",SiH12N2(O2F3)2,mp-1179548
6.220599999999999,-3.133167889999999,2,"O,Si",SiO2,mp-12350
6.2211,-3.130517716527777,2,"O,Si",SiO2,mp-559829
6.2972,-1.791968117685185,4,"F,H,O,Si",SiH14(OF)6,mp-1209032
6.3102,-3.132296810694443,2,"O,Si",SiO2,mp-556068
6.372199999999999,-2.124766877500001,3,"H,O,Si",Si2H2O3,mp-24431
6.4308,-2.972327560357141,4,"B,Li,O,Si",LiSiBO4,mp-8874
6.4897,-2.4250315421875,3,"He,O,Si",HeSiO2,mp-1019741
6.5428999999999995,-2.705608399285714,5,"Ca,F,H,O,Si",CaSiH4(OF3)2,mp-1198120
6.5469,-2.428324435625,3,"He,O,Si",HeSiO2,mp-1019742
6.5957,-1.937921590595233,4,"F,H,O,Si",SiH10(O2F3)2,mp-722246
6.7877,-2.127215314226191,3,"H,O,Si",Si2H2O3,mp-1199781
6.9932,-1.600557334299999,4,"F,H,O,Si",SiH14(O2F3)2,mp-707839