band_gap,formation_energy_per_atom,nelements,elements,formula,material_id
2.2248,-2.642422734673156,6,"Mg,Na,O,P,Si,Sn",Na4MgSiSn(PO6)2,mp-2714443
2.2252,-2.60280029488889,5,"Ca,O,S,Si,Ta",Ca2Ta4Si3(SO6)6,mp-2713480
2.226499999999999,-2.8996885968587653,6,"Ca,Na,Nb,O,P,Si",Na15Ca4Nb8Si9(PO8)9,mp-2714182
2.2265,-2.828551397999999,3,"Mg,O,Si",MgSiO3,mp-1180703
2.2268,-2.473053400104167,5,"Ge,Li,O,Si,V",Li2V2SiGeO10,mp-756174
2.2285,-2.630623847666354,6,"Ca,Na,O,P,Si,Sn",Na8CaSi4Sn3(PO12)2,mp-2715800
2.2291,-2.963533663425925,4,"Li,O,Si,V",Li2VSi4O11,mp-752694
2.2291,-3.016195303254516,6,"Na,O,P,Sc,Si,Ti",Na3ScTiSi(PO6)2,mp-2715337
2.2293,-2.748203643592586,6,"In,Na,O,P,Si,Ti",Na5Ti2In2SiP5O24,mp-2716033
2.2295,-2.609922367073548,6,"Ga,Na,O,S,Si,Ta",Na6Ta4Ga4Si7S5O48,mp-2712966
2.2302,-2.351537198076923,6,"Al,Er,N,O,Si,Sr",SrErAl3SiN4O3,mp-1208635
2.230299999999999,-2.376608399877452,5,"Hf,In,O,S,Si",Hf2In2SiS5O24,mp-2712889
2.2305,-3.262224171689453,4,"La,O,Se,Si",La4Si2Se3O7,mp-14912
2.2314,-2.751884725866341,6,"Ga,Na,Nb,O,S,Si",Na6Nb6Ga2Si9(SO16)3,mp-2713115
2.232299999999999,-2.929699701269397,6,"Na,Nb,O,S,Sc,Si",Na6Sc2Nb2Si5SO24,mp-2714010
2.2326,-2.485592350217693,6,"Ga,Na,O,S,Si,Ta",Na6Ta3Ga5Si6(SO8)6,mp-2714822
2.2329,-2.929997843063179,6,"Mg,Na,O,P,Si,Ti",Na8MgTi3Si4(PO12)2,mp-2716213
2.233,-2.639121869560035,6,"Ge,Hf,Na,O,S,Si",Na6Hf4Si7Ge4S5O48,mp-2712872
2.2332,-2.191414984429823,5,"Cl,N,O,Pr,Si",Pr16Si16N27Cl3O14,mp-686466
2.2333,-2.738009818783007,6,"Al,Na,O,S,Si,Ti",Na3Ti3AlSi3(SO8)3,mp-2714673
2.2344,-3.007258125869565,4,"Ca,Fe,O,Si",Ca3Fe2(Si2O7)2,mp-1254209
2.2349,-2.923395388328545,6,"Al,Na,Nb,O,S,Si",Na10Nb6Al2Si11SO48,mp-2716473
2.235299999999999,-2.4801651239084572,6,"Mg,Na,O,S,Si,Zr",Na2Mg4Zr4SiS11O48,mp-2714080
2.2354,-2.842411611512305,6,"Ga,Na,Nb,O,S,Si",Na10Nb6Ga2Si11SO48,mp-2716383
2.2371,-2.4978752999777303,6,"Ga,Na,Nb,O,S,Si",Na6NbGa3Si4(SO12)2,mp-2714331
2.2374,-2.972666311272373,6,"Na,Nb,O,P,Si,Y",Na3YNbSi2PO12,mp-2713644
2.2374,-2.664326530460935,6,"Hf,Na,O,S,Si,Sn",Na6Hf4Si7Sn4S5O48,mp-2712864
2.237999999999999,-2.870239342241378,3,"Mn,O,Si",MnSi2O5,mp-19351
2.2383,-2.985417638731528,6,"La,Na,Nb,O,P,Si",Na3LaNb3Si3(PO8)3,mp-2712929
2.238699999999999,-2.754155289509804,5,"Hf,O,S,Si,Ti",HfTiSi(SO6)2,mp-2713426
2.239,-2.5694328970457523,5,"Mg,O,S,Si,Ta",Mg2Ta4Si3(SO6)6,mp-2713181
2.2394,-3.01200676512806,6,"Na,Nb,O,P,Si,Y",Na7Y3NbSi3(PO8)3,mp-2714710
2.2407,-2.8292892356276473,6,"Na,Nb,O,S,Sc,Si",Na2ScNbSi2SO12,mp-2712604
2.2415,-2.316091047219828,4,"Co,Na,O,Si",Na2CoSiO4,mp-1210475
2.2426,-2.69788912072549,5,"O,S,Si,Ta,Y",YTaSi(SO6)2,mp-2713409
2.2429,-2.765324738549851,6,"Ge,Na,O,P,Sc,Si",Na5Sc2SiGe2P5O24,mp-2714170
2.243,-2.240900856263612,6,"In,Mg,Na,O,S,Si",Na4Mg2In2SiS5O24,mp-2713418
2.2436,-2.246508483484848,4,"Fe,Li,O,Si",Li2Fe2SiO6,mp-759160
2.2439,-2.88872876276598,6,"La,Na,O,S,Si,Ti",Na14La4Ti4Si9(SO16)3,mp-2714902
2.2446,-2.821528695386612,6,"Na,O,S,Si,Ta,Y",Na6Y5Ta3Si6(SO8)6,mp-2714749
2.2451,-2.946089888970363,6,"Hf,Na,O,S,Si,Ta",Na2Hf4Ta4Si7S5O48,mp-2715674
2.2454,-2.743520545087849,6,"In,Na,O,P,Si,Ti",Na3TiInSi(PO6)2,mp-2715332
2.2459,-3.044445384810606,4,"Li,O,Si,V",LiV(Si3O7)2,mp-774422
2.2462,-2.73346017141443,4,"Li,Mn,O,Si",Li2Mn3Si3O10,mp-767709
2.2479,-2.4128874835,4,"Fe,Li,O,Si",Li3FeSiO5,mp-752472
2.2484,-2.7557841683333333,4,"Li,O,Si,V",LiVSiO4,mp-757123
2.2492,-2.924619931269397,6,"Na,Nb,O,S,Si,Y",Na6Y2Nb2Si5SO24,mp-2713982
2.249399999999999,-2.9777381144411823,6,"La,Na,Nb,O,P,Si",Na5LaNb3Si5PO24,mp-2716445
2.252799999999999,-2.719808976772372,6,"In,Na,Nb,O,P,Si",Na3NbInSi2PO12,mp-2713550
2.2537000000000003,-2.800472613478524,6,"Ga,Na,Nb,O,S,Si",Na4Nb3GaSi5SO24,mp-2714926
2.254299999999999,-1.983697187678569,4,"Ge,O,Pb,Si",Si3Ge(PbO2)8,mp-1219641
2.2546,-2.53437465886523,6,"Na,O,S,Si,Ta,Zn",Na3TaZnSi2SO12,mp-2714468
2.2561,-2.388993646129031,3,"Ga,O,Si",Ga10Si2O19,mp-768931
2.2567,-2.339683496166666,4,"Br,Cr,O,Si",Cr4Si2Br2O7,mp-557963
2.2569,-3.002864077212872,6,"Na,Nb,O,P,Sc,Si",Na2ScNb3Si2(PO6)4,mp-2715736
2.2576,-2.221799737910136,3,"Na,O,Si",Na8Si7O18,mp-1180115
2.2587,-2.533199237646074,6,"Mg,Na,O,S,Si,Zr",Na2Mg2Zr2SiS5O24,mp-2715735
2.26,-3.0696272388,4,"O,Pt,Si,Sr",Sr8Si2PtO14,mp-561245
2.260099999999999,-2.983751499819377,6,"La,Na,Nb,O,P,Si",Na4LaNb3Si4(PO12)2,mp-2714972
2.2611,-3.489409555476191,4,"N,O,Si,Sm",Sm5Si3NO12,mp-1208747
2.261599999999999,-2.790174966562499,4,"Cr,Mg,O,Si",Mg14CrSiO16,mp-1034870
2.2625,-2.8608498553749993,4,"O,Si,Sn,Y",Y2Si3(SnO4)3,mp-1154662
2.262699999999999,-2.7569511316546302,6,"Ca,Na,O,S,Si,Zr",Na6Ca2Zr6Si5S7O48,mp-2716004
2.2629,-2.901370230807177,6,"Mg,Na,Nb,O,S,Si",Na30Mg4Nb20Si33(SO48)3,mp-2716517
2.263,-2.9845321040836272,6,"La,Na,Nb,O,P,Si",NaLaNb3SiP5O24,mp-2715673
2.2638,-2.689677428061064,6,"Ga,Na,Nb,O,S,Si",Na6Nb2Ga2Si5SO24,mp-2713938
2.263899999999999,-3.003001260685093,6,"Na,Nb,O,P,Si,Y",Na2YNb3Si2(PO6)4,mp-2715778
2.2647,-2.973460965064179,6,"Na,Nb,O,P,Si,Y",Na7Y2Nb2Si5PO24,mp-2714497
2.2648,-2.395706559705883,5,"Ge,O,S,Si,Zr",ZrSiGe(SO6)2,mp-2713452
2.2658,-2.953776937907317,6,"Al,Na,Nb,O,P,Si",Na2Nb3AlSi2(PO6)4,mp-2715720
2.2664,-2.754390757632354,5,"Al,O,S,Si,Ta",Ta3AlSi3(SO8)3,mp-2713779
2.2669,-2.592964925141763,4,"Li,Mn,O,Si",Li2Mn3(SiO4)2,mp-849556
2.2676,-2.608685828317369,6,"Na,O,S,Si,Zn,Zr",Na2Zr3ZnSi2(SO6)4,mp-2712596
2.2678000000000003,-2.572619709274401,6,"Ge,Mg,Na,O,P,Si",Na7MgSi3Ge3(PO8)3,mp-2714827
2.2695,-2.6674266938734172,6,"Ge,Na,O,S,Sc,Si",Na5Sc3Si3Ge(SO8)3,mp-2713516
2.2704,-2.345586991592077,6,"Na,O,S,Si,Ta,Zn",Na30Ta8Zn16Si15(S7O48)3,mp-2714984
2.271,-2.736259151574074,4,"Li,O,Si,V",Li2VSiO5,mp-766036
2.2717,-2.587275425593502,6,"Ca,Na,O,S,Si,Zr",Na10Ca6Zr2Si3(S3O16)3,mp-2714901
2.2729,-2.646376172096945,6,"Al,Na,Nb,O,S,Si",Na4NbAl3Si3(SO8)3,mp-2713713
2.272999999999999,-2.681011731018012,6,"Na,O,S,Si,Sn,Y",Na14Y4Si9Sn4(SO16)3,mp-2714769
2.2734,-2.80882414590333,6,"Na,Nb,O,S,Sc,Si",Na10Sc7NbSi6(SO8)6,mp-2716434
2.2743,-2.539603185331898,6,"Al,Ge,Na,O,S,Si",Na3AlSi2GeSO12,mp-2714333
2.2748,-2.880496149684664,6,"Al,Na,Nb,O,S,Si",Na4Nb3AlSi5SO24,mp-2715122
2.2766,-2.278883723072134,6,"In,Mg,Na,O,S,Si",Na10Mg4In4Si3(S3O16)3,mp-2714726
2.2768,-2.77179018,4,"Fe,Mg,O,Si",Mg2Fe5(SiO3)8,mp-1222243
2.2778,-2.446547196061064,6,"Al,In,Na,O,S,Si",Na6Al2In2Si3(SO8)3,mp-2716129
2.2787,-3.003334395172968,6,"Na,Nb,O,P,Si,Y",Na3YNb3Si3(PO8)3,mp-2712921
2.279099999999999,-3.002311249542338,6,"Na,Nb,O,P,Sc,Si",Na3ScNb3Si3(PO8)3,mp-2713078
2.2794,-2.65511642835508,6,"Ga,Na,O,S,Si,Ti",Na3Ti3GaSi3(SO8)3,mp-2714628
2.2796,-2.9954724910467982,6,"Na,Nb,O,P,Sc,Si",Na5Sc2Nb2Si3(PO8)3,mp-2714053
2.2801,-1.7145769275,3,"O,Si,Zn",Zn2SiO5,mp-1189355
2.2805,-2.78963931875,4,"Mg,O,Si,Sr",SrMg14SiO16,mp-1034698
2.2805,-2.57546914018774,6,"Al,Na,O,S,Si,Ta",Na2TaAl3Si2(SO6)4,mp-2712733
2.281,-3.243477344102567,4,"Ba,Nb,O,Si",Ba3Nb6(Si2O13)2,mp-6101
2.2824,-2.788172503333333,4,"Li,O,Si,V",LiVSiO4,mp-767447
2.283,-2.961804264610596,6,"Na,Nb,O,S,Si,Y",Na10Y2Nb6Si11SO48,mp-2716460
2.2836,-2.775269986262737,6,"Al,Na,O,S,Si,Ta",Na6Ta4Al4Si7S5O48,mp-2713028
2.283800000000001,-2.553282284999999,4,"Mg,O,Si,Sr",SrMg6SiO8,mp-1030841
2.2847,-2.629663647299021,5,"O,S,Sc,Si,Ta",Sc3TaSiS5O24,mp-2713041
2.284799999999999,-2.469789734047618,4,"Fe,Li,O,Si",LiFeSiO4,mp-759121
2.284799999999999,-2.571013355462963,5,"Ge,Li,O,Si,V",Li4V2SiGeO10,mp-766048
2.285,-2.550871079479885,6,"Ca,Na,O,S,Si,Zr",Na2Ca4Zr4SiS11O48,mp-2714296
2.285199999999999,-2.761578382587849,6,"Ge,Na,O,P,Sc,Si",Na3ScSiGe(PO6)2,mp-2715285
2.2854,-2.8085524509127353,6,"Na,Nb,O,S,Si,Zn",Na12Nb10Zn2Si15(SO24)3,mp-2714943
2.286699999999999,-2.927481890342091,5,"La,Na,Nb,O,Si",Na4LaNb(SiO4)3,mp-2716462
2.286699999999999,-2.554426423973043,6,"In,Na,Nb,O,S,Si",Na8NbIn3Si5SO24,mp-2716177
2.2872,-2.992229207036008,6,"Na,Nb,O,P,Sc,Si",NaScNb3SiP5O24,mp-2715608
2.2875,-2.45312853221798,6,"Ga,Hf,Na,O,S,Si",Na2Hf4Ga4Si3(S3O16)3,mp-2716555
2.2877,-3.155811088061224,3,"Mg,O,Si",Mg(SiO2)16,mp-1234904
2.2883,-2.988885709897872,6,"Hf,Na,Nb,O,S,Si",Na6Hf4Nb4Si9(SO16)3,mp-2713090
2.2936,-2.639961531575124,6,"Na,O,S,Sc,Si,Y",Na2Y4Sc4SiS11O48,mp-2714229
2.293799999999999,-2.788920861198101,6,"Na,O,P,Si,Sn,Y",Na4YSi2SnPO12,mp-2715684
2.2938,-3.006945349019936,6,"La,Na,Nb,O,P,Si",Na5La3NbSiP5O24,mp-2715923
2.2947,-2.661269144519609,5,"Ga,O,S,Si,Ta",Ta3GaSi3(SO8)3,mp-2713922
2.2955,-3.000122484102245,5,"Al,K,Na,O,Si",K2Na5Al7Si5O24,mp-697305
2.2957,-2.8368121474358983,4,"Li,O,Si,V",Li3VSi2O7,mp-1253145
2.2965,-2.8450584265625,4,"Li,O,Si,V",Li3V(SiO3)3,mp-766406
2.2966,-2.565142146921183,6,"Ge,Mg,Na,O,P,Si",Na6MgSi2Ge3(PO6)4,mp-2715306
2.296899999999999,-2.842360623269397,6,"Al,Na,Nb,O,S,Si",Na6Nb2Al2Si5SO24,mp-2713952
2.298199999999999,-2.424572216,4,"Fe,Li,O,Si",Li3FeSiO5,mp-772106
2.2984,-3.015023648212849,6,"Na,O,P,Sc,Si,Ti",Na3ScTiSi(PO6)2,mp-2715345
2.2993,-2.451941957300054,6,"Mg,Na,O,S,Si,Ta",Na30Mg20Ta4Si9(S3O16)9,mp-2714650
2.2998,-2.123283108499484,6,"Ga,Na,O,S,Si,Zn",Na10Zn4Ga4Si3(S3O16)3,mp-2714680
2.2998,-2.772647144319083,6,"Ga,Na,O,P,Si,Ti",Na5Ti2Ga2SiP5O24,mp-2716018
2.3001,-2.9486297460323803,5,"Ag,Al,Na,O,Si",Na7Al10Si14(AgO16)3,mp-690987
2.3007,-3.055040081689654,6,"Ca,F,Na,O,Si,Zr",Na2Ca29ZrSi16(O7F2)8,mp-735808
2.301199999999999,-2.847300048345532,6,"Ga,Na,Nb,O,P,Si",NaNb3GaSiP5O24,mp-2715546
2.3012,-2.75528846993904,6,"Ga,Na,Nb,O,P,Si",Na3NbGaSi2PO12,mp-2715248
2.3014,-2.9339347606000272,6,"Na,Nb,O,S,Sc,Si",Na8Sc3NbSi5SO24,mp-2715699
2.3016,-2.255635423851331,6,"Ga,Mg,Na,O,S,Si",Na4Mg2Ga2SiS5O24,mp-2713346
2.3019,-2.943685318686482,6,"Mg,Na,Nb,O,P,Si",Na9Mg2Nb10Si9(PO8)9,mp-2712885
2.3019,-2.652246684492467,6,"Na,Nb,O,S,Si,Sn",Na6Nb4Si9Sn4(SO16)3,mp-2712975
2.3022,-2.5721924135690433,6,"Mg,Na,O,S,Si,Zr",Na6Mg4Zr4Si3(S3O16)3,mp-2713997
2.3037,-2.811405096308824,5,"O,S,Sc,Si,Ta",ScTa3Si3(SO8)3,mp-2713978
2.305,-2.8276680611652303,6,"La,Na,O,S,Si,Ti",Na3LaTiSi2SO12,mp-2714579
2.3071,-3.057677131335403,5,"Al,Cd,O,Rb,Si",Rb10Al24Cd7(SiO4)24,mp-707302
2.3081,-3.027381849276347,6,"Na,Nb,O,P,Sc,Si",Na5Sc3NbSiP5O24,mp-2715994
2.3093999999999992,-2.52722043297619,4,"Fe,Li,O,Si",LiFeSiO4,mp-863368
2.3096,-2.849098416498553,6,"Ca,Na,Nb,O,P,Si",Na12Ca4Nb2Si3(PO6)6,mp-2714542
2.3118,-2.705201170326233,5,"Fe,Na,O,Si,Ti",Na2TiFe5(Si3O10)2,mp-557596
2.313799999999999,-2.9446913453125,3,"Mg,O,Si",Mg(SiO2)5,mp-1233794
2.3139,-2.226101873563587,5,"In,Na,O,S,Si",Na10In8Si5S7O48,mp-2714947
2.3144,-2.866669083208242,6,"Ga,Na,Nb,O,P,Si",Na2Nb3GaSi2(PO6)4,mp-2715733
2.3158,-2.8474658541235653,6,"La,Na,Nb,O,S,Si",Na6La3NbSi4(SO12)2,mp-2714506
2.3183,-3.011724504967941,6,"Na,Nb,O,P,Sc,Si",Na8Sc3NbSi4(PO12)2,mp-2715680
2.318599999999999,-2.910168042522373,6,"Al,Na,Nb,O,P,Si",Na3NbAlSi2PO12,mp-2715510
2.320299999999999,-2.4141481085,4,"Cl,Cr,O,Si",Cr4Si2Cl2O7,mp-556318
2.320699999999999,-2.650707838408458,6,"Mg,Na,O,S,Si,Zr",Na2Mg2Zr6Si3(S3O16)3,mp-2716442
2.3215,-2.612985082738094,4,"Li,Ni,O,Si",Li4Si2NiO7,mp-1177304
2.322,-2.597586775465687,5,"O,S,Sc,Si,Ti",Sc2Ti2SiS5O24,mp-2713119
2.322,-3.0602370198,3,"Mg,O,Si",Mg(SiO2)8,mp-1233496
2.3234,-2.7226333503557063,6,"In,Na,Nb,O,P,Si",Na3NbInSi2PO12,mp-2713305
2.3237,-2.670858517083333,3,"Mo,O,Si",Si2MoO6,mp-1042209
2.3238,-3.377986524313725,6,"Al,Ca,Mg,O,Si,Ti",CaMg2TiAl2SiO10,mp-534863
2.325299999999999,-2.6898494757818963,6,"Mg,Na,O,S,Si,Ta",Na3MgTaSi2SO12,mp-2714546
2.3258,-2.735158417875,4,"Be,O,Si,Sn",Be3Si3(SnO6)2,mp-1267034
2.3266,-2.724508540971787,4,"Mn,Na,O,Si",Na2Mn(SiO3)2,mp-1201570
2.327,-2.488963872516579,6,"Al,Na,O,S,Si,Sn",Na10Al4Si7Sn4S5O48,mp-2716022
2.3273,-2.865329318193437,6,"Mg,Na,Nb,O,S,Si",Na12Mg2Nb10Si15(SO24)3,mp-2715102
2.3277,-2.4766565072437743,5,"B,Na,O,Sb,Si",Na2SiBSbO7,mp-771025
2.327999999999999,-1.9324930320754712,6,"Cr,F,O,Pb,Si,Zn",ZnCr6Si2Pb10(O16F)2,mp-556077
2.329,-2.884236210469233,6,"Al,Na,Nb,O,S,Si",Na14Nb4Al4Si11SO48,mp-2714559
2.33,-2.929461192105707,6,"La,Na,Nb,O,P,Si",Na3LaNbSi2PO12,mp-2715271
2.3306,-2.689331529837029,6,"Ca,Na,O,S,Si,Zr",Na2Ca2Zr6Si3(S3O16)3,mp-2716486
2.3306,-2.436713698810459,5,"O,S,Si,Ta,Zn",Ta4Zn2Si3(SO6)6,mp-2713482
2.330699999999999,-2.434292013275862,4,"Fe,Mn,O,Si",MnFeSiO4,mp-1221755
2.3308,-3.00247750182033,6,"Na,Nb,O,P,Sc,Si",Na3Sc2Nb2SiP5O24,mp-2713057
2.3316,-2.668100568148148,4,"Cr,Li,O,Si",Li2Cr3Si3O10,mp-757421
2.332,-2.739103708546183,6,"Ge,Na,O,P,Si,Y",Na3YSiGe(PO6)2,mp-2715295
2.3327,-2.449199660000001,4,"Fe,Li,O,Si",LiFeSiO4,mp-752718
2.333,-2.606392899373564,6,"Ca,Na,O,S,Si,Zr",Na6Ca3ZrSi2(SO6)4,mp-2712803
2.3338,-2.923009787987028,6,"Hf,Na,O,S,Si,Ta",NaHf3TaSi3(SO8)3,mp-2713832
2.3342,-2.830610635294356,6,"In,Na,Nb,O,S,Si",Na10Nb6In2Si11SO48,mp-2716477
2.3344,-2.66722842310273,6,"In,Na,Nb,O,S,Si",Na6Nb2In2Si5SO24,mp-2713762
2.3352999999999993,-2.7972876275303,6,"Mg,Na,Nb,O,P,Si",Na12Mg4Nb2Si3(PO6)6,mp-2714441
2.3358,-2.728235645568181,5,"H,Li,O,Si,V",Li3VSi4(HO6)2,mp-770607
2.3372,-3.010163520250001,4,"Mg,O,Si,V",MgV(SiO3)2,mp-1041866
2.3384,-2.616092415046182,6,"Ca,Na,O,P,Si,Sn",Na6CaSi2Sn3(PO6)4,mp-2715269
2.3399,-2.5511406047985012,6,"Mg,Na,O,S,Si,Zr",Na14Mg6Zr2Si5S7O48,mp-2715985
2.3399,-2.87444962378526,6,"Na,O,S,Sc,Si,Ta",Na6Sc4Ta4Si7S5O48,mp-2712911
2.3418,-2.992862878230707,6,"Na,Nb,O,P,Sc,Si",Na3ScNbSi2PO12,mp-2713264
2.3424,-2.4981904615,4,"Fe,Li,O,Si",Li3FeSiO5,mp-764341
2.3436,-2.8596535984162132,6,"In,Na,Nb,O,P,Si",Na3Nb3InSi3(PO8)3,mp-2712871
2.3443,-2.166435563575123,6,"Al,In,Na,O,S,Si",Na2Al4In4SiS11O48,mp-2714069
2.3446,-2.534015127738095,4,"Fe,Li,O,Si",Li2Fe5Si5O16,mp-767707
2.345099999999999,-2.7573097978571433,4,"Li,O,Si,V",LiVSiO4,mp-753492
2.3454,-2.8903697759857483,6,"Al,Na,Nb,O,P,Si",Na5NbAl3SiP5O24,mp-2714247
2.3455,-2.782306284603175,4,"Cr,Li,O,Si",Li2Cr3(SiO3)4,mp-757728
2.3459,-2.744559621886557,4,"Li,Mn,O,Si",Li2Mn4Si4O13,mp-860880
2.3465,-2.7761490148378503,6,"Ga,Na,O,P,Si,Ti",Na3TiGaSi(PO6)2,mp-2715361
2.3465,-2.172808352132353,5,"Al,O,S,Si,Sn",Al2SiSn2S5O24,mp-2712836
2.3476,-2.148573896245098,5,"Ga,O,S,Si,Ta",TaGa3SiS5O24,mp-2712858
2.347699999999999,-2.019428692448979,5,"Al,Ni,O,Sb,Si",Al4Si2Ni13(SbO14)2,mp-1044564
2.347799999999999,-1.792994503333337,3,"Bi,O,Si",Si(Bi3O5)4,mp-23492
2.3497,-2.676340642652873,4,"Li,Mn,O,Si",Li2Mn5(Si2O7)2,mp-756814
2.3499,-2.98839620904792,6,"Na,Nb,O,P,Sc,Si",Na7Sc2Nb2Si5PO24,mp-2714355
2.3499,-2.482680919296182,6,"Ge,Na,O,P,Si,Zn",Na6ZnSi2Ge3(PO6)4,mp-2715511
2.3524000000000003,-2.62243526009804,4,"Fe,Li,O,Si",Li2Fe2Si3O10,mp-766530
2.3525,-2.461094862058825,5,"Hf,O,S,Si,Sn",HfSiSn(SO6)2,mp-2713420
2.353099999999999,-2.821608155183908,6,"Na,O,S,Sc,Si,Ta",Na6Sc5Ta3Si6(SO8)6,mp-2714672
2.3544,-2.976286475,4,"Cr,Mg,O,Si",MgCr(SiO3)2,mp-1210573
2.355,-2.824010488061451,6,"Na,Nb,O,S,Si,Y",Na10Y7NbSi6(SO8)6,mp-2713384
2.3564,-2.851237027624999,4,"Al,Cr,O,Si",Al2Cr3(SiO4)3,mp-1364177
2.356999999999999,-2.838943774607436,6,"In,Na,Nb,O,P,Si",NaNb3InSiP5O24,mp-2715811
2.3574,-2.479126650421183,6,"Ge,Na,O,P,Si,Zn",Na6ZnSi2Ge3(PO6)4,mp-2715239
2.3581,-2.325065105357142,3,"O,Si,Zn",Zn2SiO4,mp-1020717
2.3581,-2.4830573845791193,6,"Mg,Na,O,S,Si,Ta",Na9Mg5TaSi3(SO6)6,mp-2712551
2.3584,-2.8982281804249532,6,"Ca,Na,O,S,Si,Ta",Na18Ca4Ta8Si15(SO24)3,mp-2713770
2.3602,-1.69606523482143,4,"La,N,O,Si",La8Si5N14O,mp-1223370
2.360999999999999,-2.975504014855707,6,"Na,Nb,O,P,Si,Y",Na3YNbSi2PO12,mp-2713260
2.3618,-2.949867520303277,6,"Na,Nb,O,S,Si,Zr",Na6Zr4Nb4Si9(SO16)3,mp-2712972
2.3621,-2.7659651535185192,4,"Li,O,Si,V",Li2VSiO5,mp-18860
2.3636,-2.302588759285714,3,"O,Si,Zn",Zn2SiO4,mp-558096
2.364,-2.497749834939655,4,"Fe,Mn,O,Si",Mn3Fe2(SiO4)3,mp-6239
2.364,-2.529541182463767,5,"Ag,Al,I,O,Si",Al3Si3Ag4IO12,mp-1214863
2.3647,-3.037305041712244,6,"Na,Nb,O,P,Si,Y",Na5Y3NbSiP5O24,mp-2714107
2.3648,-2.938289839660838,6,"Na,Nb,O,S,Si,Ta",Na2Ta4Nb4Si9(SO16)3,mp-2714266
2.364999999999999,-2.604663785754516,6,"Mg,Na,O,P,Si,Sn",Na6MgSi2Sn3(PO6)4,mp-2715344
2.365999999999999,-2.198904756,4,"Co,O,Si,Zn",Zn3Co2(SiO4)3,mp-1327416
2.3669000000000002,-2.99089871468904,6,"Na,Nb,O,P,Sc,Si",Na3ScNbSi2PO12,mp-2713232
2.3676999999999992,-3.081720736428572,3,"Mg,O,Si",Mg2SiO4,mp-530852
2.3696,-2.553174163325695,6,"Ca,Na,O,S,Si,Ta",Na30Ca20Ta4Si9(S3O16)9,mp-2714845
2.369899999999999,-3.001257475869565,5,"Mg,O,Si,Sr,V",Sr2MgV2(Si2O7)2,mp-1234246
2.3707000000000003,-2.852488455314724,6,"In,Na,Nb,O,P,Si",Na2Nb3InSi2(PO6)4,mp-2715557
2.3708,-3.397758357333333,4,"Ca,O,Si,Ti",Ca2TiSiO6,mp-9413
2.3719,-2.7140583939523832,5,"Bi,O,Si,Sr,Ta",Sr3Ta7Si(BiO4)9,mp-1202933
2.3719,-2.7685234213568313,6,"Ge,Na,O,P,Sc,Si",Na4ScSi2GePO12,mp-2715597
2.372,-2.9781102379999993,4,"Cr,Mg,O,Si",MgCr(SiO3)2,mp-1041862
2.3723,-2.659572471587118,6,"Ge,Na,O,S,Si,Y",Na14Y4Si9Ge4(SO16)3,mp-2715002
2.373,-2.522090636831897,6,"Mg,Na,O,S,Si,Zr",Na6Mg3ZrSi2(SO6)4,mp-2712628
2.3731,-2.4854565267708333,4,"Co,Li,O,Si",Li2CoSiO4,mp-764642
2.3735,-2.457759002965297,6,"Ga,Na,Nb,O,S,Si",Na10Nb2Ga6Si7S5O48,mp-2716002
2.373699999999999,-3.0209429261,4,"Li,O,Si,V",Li3V(Si2O5)3,mp-756789
2.3739,-2.9592035063441413,6,"Ca,Na,Nb,O,P,Si",Na9Ca2Nb10Si9(PO8)9,mp-2712917
2.3748,-3.003964934227506,6,"Na,Nb,O,P,Si,Ti",Na5Ti2Nb2Si5PO24,mp-2716518
2.3756,-2.762902123232391,6,"Ca,Na,O,S,Si,Zr",Na10Ca3Zr5Si6(SO8)6,mp-2713375
2.3757,-2.746464432542525,6,"Ga,Na,Nb,O,P,Si",Na5Nb2Ga2Si3(PO8)3,mp-2714318
2.3761,-2.923361202826086,4,"Ca,O,Sb,Si",Ca3Si4(SbO7)2,mp-1250828
2.3769,-2.874803198092502,6,"Na,Nb,O,P,Si,Zn",Na3Nb5ZnSi3(PO6)6,mp-2715615
2.377799999999999,-2.343505630294117,5,"Fe,Mg,O,Si,Zn",MgZn2Fe2(SiO5)2,mp-2229162
2.3779,-2.444734885119047,4,"Fe,Li,O,Si",LiFeSiO4,mp-758519
2.3779999999999992,-2.914872931747688,5,"Na,O,Si,Ta,Zn",Na7Ta3Zn(SiO4)6,mp-2712904
2.3784,-2.871376091952248,6,"Ga,Na,Nb,O,P,Si",Na3Nb3GaSi3(PO8)3,mp-2712959
2.3808,-2.739573265408458,6,"Na,O,S,Si,Y,Zr",Na2Y4Zr4Si3(S3O16)3,mp-2716310
2.3817999999999993,-2.5306575541931,6,"Na,O,P,Si,Sn,Zn",Na7ZnSi3Sn3(PO8)3,mp-2715044
2.3824,-2.726010384846552,6,"In,Na,O,S,Si,Ta",Na2Ta6In2Si7S5O48,mp-2715527
2.383099999999999,-3.116950543,3,"O,Si,Sr",SrSiO3,mp-1017439
2.383199999999999,-2.748478978658418,6,"In,Na,O,P,Si,Ti",Na4TiInSi2PO12,mp-2716227
2.3836999999999993,-2.536119429727731,6,"In,La,Na,O,S,Si",Na6La2In2Si3(SO8)3,mp-2716159
2.3838,-3.001933870608851,6,"Na,Nb,O,P,Sc,Si",Na4ScNb3Si4(PO12)2,mp-2715040
2.3845,-2.6264837382174893,6,"In,Na,Nb,O,P,Si",Na7NbIn3Si3(PO8)3,mp-2714923
2.3846,-2.770652793508286,6,"Na,O,S,Si,Ta,Zn",Na18Ta8Zn4Si15(SO24)3,mp-2713898
2.3847,-2.714252860980394,5,"O,S,Si,Ti,Zr",ZrTiSi(SO6)2,mp-2713214
2.386199999999999,-2.324762681770046,5,"In,Na,O,S,Si",Na14In8Si7S5O48,mp-2715669
2.3865,-1.995350880772114,5,"Al,H,Na,O,Si",Na2Al2Si3(HO3)4,mp-1173828
2.3865,-2.361448191505817,6,"In,Mg,Na,O,S,Si",Na14Mg4In4Si5S7O48,mp-2715918
2.3886000000000003,-2.8059189035881733,6,"Ca,Na,O,S,Si,Zr",Na4CaZr3Si3(SO8)3,mp-2713291
2.3891,-2.742007012031155,6,"Al,Na,Nb,O,S,Si",Na2NbAlSi2SO12,mp-2712776
2.3899,-2.74021361094093,6,"Ga,Na,Nb,O,P,Si",Na2NbGaSi(PO6)2,mp-2712547
2.3899,-2.9082115038936793,6,"La,Na,O,S,Si,Ti",Na8La2Ti2Si5SO24,mp-2716273
2.3901,-3.001389160652174,5,"Mg,O,Si,Sr,V",Sr2MgV2(Si2O7)2,mp-1233213
2.3904,-3.001751230126393,6,"Na,Nb,O,P,Si,Y",Na4YNb3Si4(PO12)2,mp-2715177
2.3904,-2.4158200839798862,6,"Ga,Na,O,S,Si,Zr",Na2Zr4Ga4Si3(S3O16)3,mp-2716420
2.3906,-3.452390772916666,4,"Ba,O,Si,U",BaU(SiO4)2,mp-555561
2.3907,-3.186227192939452,4,"O,Se,Si,Sm",Sm4Si2Se3O7,mp-14837
2.390799999999999,-2.9345352808378493,6,"Al,Na,O,P,Si,Ti",Na3TiAlSi(PO6)2,mp-2715517
2.390799999999999,-2.754429166842105,4,"Fe,Mg,O,Si",MgFe2(SiO3)4,mp-1255353
2.3908,-2.5727161806504073,4,"Fe,Li,O,Si",Li5Fe5Si7O24,mp-863356
2.3909000000000002,-2.995231715750294,6,"Na,Nb,O,P,Si,Y",NaYNb3SiP5O24,mp-2715555
2.3912,-2.837289041765601,5,"Na,O,S,Si,Zr",Na2Zr8Si5S7O48,mp-2716122
2.3918,-3.179634930908202,4,"Nd,O,Se,Si",Nd4Si2Se3O7,mp-15016
2.3919,-2.760733684761904,4,"Li,O,Si,V",LiVSiO4,mp-1176508
2.3921,-3.170509341324869,4,"O,Pr,Se,Si",Pr4Si2Se3O7,mp-14836
2.393399999999999,-1.6941144601587301,5,"La,Li,N,O,Si",LiLa5Si4N10O,mp-1222517