band_gap,formation_energy_per_atom,nelements,elements,formula,material_id
2.969999999999999,-3.368484574010416,5,"Ca,Ge,O,Si,Ti",Ca4Ti4Si3GeO20,mp-1227317
2.9702,-2.757814065432098,4,"Fe,Li,O,Si",Li2Fe3(Si3O8)2,mp-757311
2.9703,-2.9956953140102183,4,"Na,O,Si,Ti",Na2TiSiO5,mp-6138
2.9705,-3.386013704877873,5,"Na,O,Si,Ti,Y",NaYTi2(SiO5)2,mp-1220706
2.971,-2.588742049290504,6,"Mg,Na,O,S,Si,Zr",Na8Mg3ZrSi3(SO8)3,mp-2714985
2.9723,-3.104704974956897,5,"Hf,Na,Nb,O,Si",Na3HfNb(SiO4)3,mp-2715222
2.9724,-2.382960105612746,5,"Ga,Hf,O,S,Si",Hf2Ga2SiS5O24,mp-2713105
2.9724999999999993,-3.22723622525,5,"Al,Ca,Fe,O,Si",Ca3AlFe(SiO4)3,mp-1227902
2.9734,-2.483516122619046,4,"Fe,Li,O,Si",LiFeSiO4,mp-764355
2.9739,-2.558580193855706,6,"Ge,Na,O,P,Si,Sn",Na3Si2SnGePO12,mp-2715385
2.9747999999999992,-2.909838627250001,4,"Ca,Co,O,Si",CaCo(SiO3)2,mp-1041912
2.9748,-2.6870843805,4,"Al,Co,O,Si",Al2Co3(SiO4)3,mp-6186
2.975799999999999,-3.492195948906249,6,"Al,Ca,F,O,Si,Ti",Ca4Ti3AlSi4O19F,mp-534953
2.9758,-2.266770633520853,5,"Ga,Na,O,S,Si",Na10Ga8Si5S7O48,mp-2715069
2.976099999999999,-2.127544724444445,4,"Bi,Li,O,Si",LiSiBi3O7,mp-757777
2.9766,-2.985023533141025,4,"Li,O,Si,V",LiVSi3O8,mp-765984
2.9766,-2.027069269132107,6,"Ga,Na,O,S,Si,Zn",Na6Zn4Ga4SiS11O48,mp-2713570
2.9768,-2.82483340964631,6,"Ge,Na,O,P,Si,Ta",Na5Ta2Si5Ge2PO24,mp-2716542
2.9772,-3.044858966650653,5,"Na,O,P,Si,Zr",Na20Zr11Si10(PO9)8,mp-677692
2.9773,-2.215385682886904,4,"Fe,Li,O,Si",LiFeSiO4,mp-759315
2.9791,-3.33933064953125,5,"Ca,O,Si,Sn,Ti",Ca4Ti3Si4SnO20,mp-1227165
2.9796,-2.78969154297619,5,"Al,Ca,H,O,Si",CaAl2Si4(HO6)2,mp-1214076
2.9801,-2.459044067431109,6,"Al,Ca,Na,O,S,Si",Na10Ca4Al4Si3(S3O16)3,mp-2714883
2.9807,-2.5087156740000003,3,"Fe,O,Si",FeSiO3,mp-561362
2.9808,-2.712794465013612,6,"Hf,Na,O,S,Si,Sn",Na2HfSi2SnSO12,mp-2712532
2.981499999999999,-2.496853463958333,4,"Co,Li,O,Si",Li2CoSiO4,mp-758637
2.9822,-2.536767287619047,4,"Fe,Li,O,Si",LiFeSiO4,mp-758562
2.9823,-2.942303036637931,5,"Al,Fe,Na,O,Si",Na2AlFe(SiO3)4,mp-1221399
2.9823,-3.058495782686544,6,"Na,O,P,Sc,Si,Ta",Na2ScTaSi(PO6)2,mp-2712661
2.982999999999999,-2.370267103809523,4,"Li,Ni,O,Si",Li2Si5Ni5O16,mp-756771
2.9838,-2.507041608571428,4,"Fe,Li,O,Si",LiFeSiO4,mp-758825
2.9838999999999993,-2.492892022425425,6,"Ga,Ge,Na,O,S,Si",Na8Ga2Si5Ge2SO24,mp-2715601
2.984,-2.56580246483915,6,"Hf,Mg,Na,O,S,Si",Na14Hf2Mg6Si5S7O48,mp-2716076
2.984099999999999,-2.8617412356855523,4,"Li,Mn,O,Si",Li2MnSi3O8,mp-757743
2.984599999999999,-2.488128431014492,4,"Li,O,Pb,Si",Li10Si2PbO10,mp-553950
2.9848,-3.084722107073871,6,"La,Na,O,P,Si,Ta",Na3LaTa3Si3(PO8)3,mp-2712906
2.985,-2.515435684761904,4,"Fe,Li,O,Si",LiFeSiO4,mp-754842
2.985399999999999,-2.062119851979167,4,"Fe,Li,O,Si",Li2Fe2(SiO3)3,mp-758830
2.985499999999999,-3.476201650416667,4,"Ca,O,Si,Ti",CaTiSiO5,mp-6109
2.9857,-2.759645643006489,6,"In,La,Na,O,P,Si",Na4LaInSi(PO6)2,mp-2714521
2.986899999999999,-2.755596724289591,6,"Hf,Mg,Na,O,S,Si",Na2Hf3MgSi2(SO6)4,mp-2712724
2.987599999999999,-2.854460508500454,6,"Ca,Hf,Na,O,S,Si",Na4CaHf3Si3(SO8)3,mp-2713219
2.9878,-2.515714324761904,4,"Fe,Li,O,Si",LiFeSiO4,mp-758507
2.9878,-2.507034242107964,6,"Ga,Na,O,S,Si,Sn",Na8Ga2Si5Sn2SO24,mp-2716225
2.9879,-2.9569027722193972,6,"La,Na,O,S,Si,Ta",Na6La2Ta2Si5SO24,mp-2713760
2.9889,-2.9535382580529292,6,"Mg,Na,O,P,Si,Ta",Na9Mg2Ta4Si6(PO12)3,mp-2713540
2.9892000000000003,-2.427896522969753,6,"Ga,Na,O,S,Si,Ta",Na4TaGa3Si3(SO8)3,mp-2713555
2.9895,-2.57001138237069,4,"Mg,Mn,O,Si",Mg6MnSiO8,mp-1032411
2.9898000000000002,-2.821872955484528,6,"Na,O,S,Sc,Si,Ta",Na10Sc7TaSi6(SO8)6,mp-2716405
2.9899,-2.619994990937329,6,"In,Na,O,S,Si,Y",Na4YInSi2SO12,mp-2714566
2.990199999999999,-2.734742327318826,6,"Hf,In,Na,O,S,Si",Na14Hf4In4Si9(SO16)3,mp-2714654
2.9909,-2.474306230628352,4,"Na,O,Si,Zn",Na2Zn3(SiO4)2,mp-555300
2.9953000000000003,-2.931882703756807,4,"Al,Na,O,Si",NaAl3(SiO4)3,mp-1220946
2.9958,-2.646559276473043,6,"Mg,Na,O,S,Si,Y",Na8Y2Mg2Si3(SO8)3,mp-2715157
2.9958,-2.483461721401195,6,"Ga,Na,O,S,Si,Ta",Na10Ta2Ga6Si7S5O48,mp-2716052
2.9959,-2.604690504290372,6,"Ga,Na,O,S,Si,Y",Na14Y4Ga4Si7S5O48,mp-2715817
2.996299999999999,-2.511143563333333,4,"Co,Li,O,Si",Li2CoSiO4,mp-753732
2.9964999999999993,-2.426657292395833,4,"Li,Ni,O,Si",Li2SiNiO4,mp-766582
2.9965,-2.829981704343618,4,"Li,Mn,O,Si",Li2Mn2Si4O11,mp-756999
2.9969,-2.98400294230273,6,"Na,O,S,Si,Ta,Y",Na6Y2Ta2Si5SO24,mp-2713835
2.997299999999999,-2.92462493176167,4,"Li,Mn,O,Si",Li2Mn5(Si2O5)6,mp-850291
2.9983,-2.462062666928972,6,"Ga,Hf,Na,O,S,Si",Na5HfGa3Si3(SO8)3,mp-2716432
2.9985,-2.952631854855264,4,"Al,K,O,Si",KAl3(SiO4)3,mp-1223669
2.9991000000000003,-2.508577220833333,4,"Fe,Li,O,Si",Li2FeSiO4,mp-758421
2.9997,-2.5410857533333333,4,"Fe,Li,O,Si",Li2FeSiO4,mp-1177998
3.0002,-2.675044059208333,4,"Fe,Li,O,Si",LiFe(SiO3)2,mp-757648
3.0002,-3.534141076699507,5,"Na,O,S,Si,Sm",NaSm9Si6(SO12)2,mp-1220974
3.0007,-2.799909325644397,5,"La,Na,O,S,Si",Na6La4Si3(SO8)3,mp-2716262
3.000899999999999,-2.953647443539475,4,"Al,K,O,Si",KAl3(SiO4)3,mp-1223735
3.0012,-2.86704476565194,4,"Mn,O,Si,Zn",MnZn(Si2O5)2,mp-1043523
3.001299999999999,-2.772527426283035,6,"In,Na,O,P,Si,Ta",Na2TaInSi(PO6)2,mp-2712650
3.0014,-3.019082362689051,4,"Na,Nb,O,Si",Na2Nb2(SiO4)3,mp-2714432
3.001499999999999,-2.520721034047618,4,"Fe,Li,O,Si",LiFeSiO4,mp-758499
3.001900000000001,-2.795219040624999,4,"Mg,O,Si,Sr",SrMg14SiO16,mp-1034686
3.002,-2.530488717661063,6,"Ga,Na,O,S,Si,Ta",Na6TaGa3Si4(SO12)2,mp-2714358
3.002399999999999,-2.688733544488917,6,"Ca,La,Na,O,S,Si",Na8Ca2La2Si3(SO8)3,mp-2715135
3.0027,-3.242379914166667,4,"Mg,O,Si,Ti",MgTiSiO5,mp-1046534
3.0028,-2.986023191439127,6,"B,Ba,Na,O,Si,Ti",BaNa4Ti2Si10(BO15)2,mp-684696
3.0031,-2.2490695230799362,5,"C,Na,O,Sb,Si",NaSiSbCO7,mp-772595
3.0035,-2.659484338060345,6,"Ca,Na,O,S,Si,Zr",Na8Ca3ZrSi3(SO8)3,mp-2714944
3.0037,-3.030326635472373,6,"Na,O,P,Si,Ta,Y",Na3YTaSi2PO12,mp-2715321
3.004099999999999,-2.561767654772383,6,"Ca,Na,O,S,Si,Zr",Na4Ca3ZrSiS5O24,mp-2713376
3.004499999999999,-2.5253457274857842,6,"Ge,In,Na,O,P,Si",Na7In2Si3Ge2(PO8)3,mp-2714776
3.0051,-2.707444126969697,4,"Co,Li,O,Si",Li2Co(SiO3)2,mp-753142
3.005299999999999,-3.027171477851331,6,"Na,O,S,Sc,Si,Ta",Na4ScTa3Si5SO24,mp-2715039
3.0053,-2.406794632976191,4,"Al,O,Si,Tl",AlTlSiO4,mp-1183017
3.0056,-3.494323240000001,5,"Ca,O,Si,Ti,Zr",Ca4ZrTi3(SiO5)4,mp-1227178
3.0066,-3.356612029125,6,"Al,Ca,Fe,O,Si,Zr",Ca3Zr2AlFeSiO12,mp-1227925
3.0066,-2.4697208904761903,4,"Bi,Li,O,Si",LiSiBiO4,mp-1176587
3.007,-2.435073549244719,6,"Ga,La,Na,O,S,Si",Na6La4Ga4Si3(S3O16)3,mp-2713944
3.0074,-2.482303769047619,4,"Fe,Li,O,Si",LiFeSiO4,mp-758257
3.0082,-2.475539557619047,4,"Fe,Li,O,Si",LiFeSiO4,mp-758695
3.0084,-2.8985565944083502,6,"Ga,Na,O,S,Si,Ta",Na4Ta3GaSi5SO24,mp-2715042
3.009299999999999,-2.725739693636064,6,"In,Na,O,S,Si,Ta",Na6Ta2In2Si5SO24,mp-2713735
3.0095,-3.04658051607563,5,"Nb,O,P,Si,Ta",TaNbSi(PO6)2,mp-2715709
3.0101,-2.515870616369046,4,"Fe,Li,O,Si",LiFeSiO4,mp-759087
3.0102,-2.341155775714285,4,"Ba,N,O,Si",BaSi2(NO)2,mp-6764
3.0108,-2.8417203726794042,6,"Mg,Na,O,S,Si,Zr",Na6MgZr7Si6(SO8)6,mp-2714695
3.011299999999999,-2.775030816103669,6,"Ge,Na,O,P,Si,Y",Na7Y2Si3Ge2(PO8)3,mp-2714788
3.0113,-3.497703789027777,6,"Al,Ca,F,O,Si,Ti",Ca3Ti2AlSi3O14F,mp-43094
3.012299999999999,-2.771402708873563,5,"Ge,Na,Nb,O,Si",Na3NbSi3GeO12,mp-2715264
3.0125,-2.268655562801418,6,"Al,Cl,N,O,Pr,Si",Pr20AlSi19N33Cl2O19,mp-721011
3.0128,-3.080444596945677,6,"Na,Nb,O,P,Si,Ta",NaTaNbSi2PO12,mp-2713379
3.0139,-2.778591496280332,6,"Na,O,S,Si,Y,Zr",NaYZrSi(SO6)2,mp-2712633
3.014799999999999,-2.961964034776573,6,"In,Na,O,P,Si,Ta",Na3Ta3InSi3(PO8)3,mp-2713016
3.0152,-3.040334269832818,6,"La,Na,O,S,Si,Ta",Na10La2Ta6Si11SO48,mp-2716512
3.0157,-3.101524749731527,6,"Na,O,P,Si,Ta,Y",Na3YTa3Si3(PO8)3,mp-2712967
3.0164,-2.8573111644712643,6,"Ca,F,Na,O,Si,Zr",Na3Ca3Zr2Si4(O5F)3,mp-1248208
3.0174,-3.43293973275,6,"Al,Ca,Fe,Hf,O,Si",Ca3Hf2AlFeSiO12,mp-1227961
3.0177,-2.596131015,4,"Cr,Li,O,Si",Li3CrSiO5,mp-762413
3.0184,-2.798053300027262,6,"Ca,Hf,Na,O,S,Si",Na10Ca3Hf5Si6(SO8)6,mp-2713500
3.0187,-2.885633684354186,6,"Na,O,S,Si,Y,Zr",Na10Y4Zr4Si7S5O48,mp-2716023
3.0194,-2.70006805199972,5,"Ge,Na,O,Si,Ta",Na7TaSi6(GeO8)3,mp-2713084
3.0201,-2.767734168703213,6,"In,Na,O,P,Si,Ta",Na3Ta2In2SiP5O24,mp-2713093
3.0206,-2.591961183682066,5,"Na,O,P,Si,Sn",Na7Si5Sn4PO24,mp-2714591
3.0209,-2.586898252432266,6,"Ca,Hf,Na,O,S,Si",Na2Ca4Hf4SiS11O48,mp-2714277
3.0214,-2.488722985119047,4,"Fe,Li,O,Si",LiFeSiO4,mp-758436
3.0217,-2.379109403109037,6,"Hf,Na,O,S,Si,Zn",Na2Hf2Zn2SiS5O24,mp-2715569
3.0218,-2.645408653627689,6,"Hf,In,Na,O,S,Si",Na10Hf4In4Si7S5O48,mp-2715826
3.0223,-2.6962145933666672,4,"Fe,Li,O,Si",Li2Fe2(Si2O5)3,mp-772312
3.0224,-2.486248817142857,4,"Fe,Li,O,Si",LiFeSiO4,mp-1260096
3.023,-3.050296715137932,5,"Al,Fe,Na,O,Si",Na4Al3Fe(SiO3)8,mp-1221226
3.0233,-2.7465483583333343,4,"Fe,Li,O,Si",LiFe(SiO3)2,mp-752617
3.0233,-2.904084257969396,6,"Al,Na,O,S,Si,Ta",Na6Ta2Al2Si5SO24,mp-2713778
3.0236,-2.776525585519397,6,"Na,O,S,Si,Sn,Zr",Na6Zr2Si5Sn2SO24,mp-2713804
3.0239,-2.624441073737841,5,"Na,O,Si,Ti,Zn",Na2TiZn2SiO7,mp-13810
3.0244,-2.495730443333332,4,"Fe,Li,O,Si",LiFeSiO4,mp-759738
3.024599999999999,-2.363416295416667,4,"N,O,Si,Y",Y2Si3N4O3,mp-6941
3.025,-2.70082814750221,4,"Li,Mn,O,Si",Li2Mn2Si2O7,mp-859108
3.026499999999999,-2.675967655692809,6,"Ca,Na,O,S,Sc,Si",Na14Ca4Sc4Si5S7O48,mp-2715893
3.0265,-2.505341069270834,4,"Co,Li,O,Si",Li2CoSiO4,mp-759671
3.027199999999999,-3.068303103761558,6,"Ca,Na,O,P,Si,Ta",Na9Ca2Ta10Si9(PO8)9,mp-2713075
3.0276,-2.0732185035,4,"H,O,Si,Zn",Zn2SiH2O5,mp-1203942
3.028699999999999,-2.652957972499999,4,"In,Li,O,Si",LiInSiO4,mp-7205
3.0288,-3.43141231548718,4,"Ba,O,Si,Ta",Ba3Ta6(Si2O13)2,mp-6169
3.029299999999999,-2.909304199152298,6,"Ca,Cr,Mg,Na,O,Si",NaCaMgCr(SiO3)4,mp-1173694
3.0294,-2.8155255994444452,3,"O,Si,Sn",Si2SnO6,mp-1142992
3.0296,-2.9543915765607993,4,"Al,Cs,O,Si",CsAl3(SiO4)3,mp-1226735
3.03,-2.4659751369047602,4,"Fe,Li,O,Si",LiFeSiO4,mp-762632
3.0301,-2.958170229073983,6,"In,Na,O,P,Si,Ta",Na2Ta3InSi2(PO6)4,mp-2715679
3.0304,-2.952916126666668,3,"Al,O,Si",Al(SiO3)2,mp-732264
3.0315,-2.98105571775479,5,"La,Na,O,Si,Ta",Na4LaTa(SiO4)3,mp-2716482
3.0316,-2.937937828541668,4,"O,Si,Ti,Zn",TiZnSiO5,mp-1046592
3.0317,-2.513495400833333,4,"Fe,Li,O,Si",LiFeSiO4,mp-758574
3.0327,-2.524840064127769,5,"Ge,Na,O,S,Si",Na14Si11Ge8SO48,mp-2714501
3.032899999999999,-3.009684990237376,6,"Mg,Na,O,S,Si,Ta",Na30Mg4Ta20Si33(SO48)3,mp-2716319
3.0341,-2.765743051210981,6,"Na,O,S,Si,Sn,Ta",Na4Ta2Si5Sn2SO24,mp-2715139
3.0347,-2.8786242747235633,6,"La,Na,O,S,Si,Ta",Na6La3TaSi4(SO12)2,mp-2714413
3.035499999999999,-2.47689314202381,4,"Bi,Li,O,Si",LiSiBiO4,mp-863408
3.0358,-2.928976559354166,5,"Co,Ho,K,O,Si",KHoCoSi2O7,mp-735519
3.0362,-2.527125977976188,4,"Fe,Li,O,Si",LiFeSiO4,mp-758506
3.036299999999999,-2.737660219083333,4,"Fe,Li,O,Si",LiFe(SiO3)2,mp-1266318
3.036299999999999,-2.663702815757576,4,"Fe,Li,O,Si",Li2Fe(SiO3)2,mp-758910
3.036299999999999,-2.482390188956076,6,"Al,La,Na,O,S,Si",Na2La4Al4SiS11O48,mp-2714147
3.0364,-2.487747731309524,4,"Fe,Li,O,Si",LiFeSiO4,mp-758862
3.0365,-2.613877184749999,4,"Ni,O,Si,Y",Y2Si3(NiO4)3,mp-1363993
3.0382,-2.924579158083332,4,"Cr,Li,O,Si",LiCr(SiO3)2,mp-18727
3.0383,-3.076363538656898,5,"Na,O,Si,Ta,Ti",Na3TaTi(SiO4)3,mp-2715475
3.038399999999999,-3.111669648946066,5,"Na,O,Si,Ta,Ti",Na5Ta3Ti(SiO4)6,mp-2713408
3.0387,-2.190131831520056,4,"Na,O,P,Si",Na3Si2PO8,mp-1180369
3.0391,-2.477396069875,3,"Ge,O,Si",SiGeO3,mp-769171
3.0396,-2.622753696473043,6,"La,Mg,Na,O,S,Si",Na8La2Mg2Si3(SO8)3,mp-2715209
3.04,-2.303893736456897,6,"Hf,Na,O,S,Si,Zn",Na6HfZn3Si2(SO6)4,mp-2712740
3.040599999999999,-3.019475214918288,6,"Al,Na,O,S,Si,Ta",Na10Ta6Al2Si11SO48,mp-2716362
3.0406,-2.436336037217692,6,"Ga,Na,O,S,Sc,Si",Na6Sc4Ga4Si3(S3O16)3,mp-2713781
3.0432,-2.493362278706897,6,"Al,Ca,Na,O,S,Si",Na3CaAlSi(SO6)2,mp-2712677
3.0433,-0.297031917882883,5,"C,H,O,Si,Ti",TiSi7H48(C8O)2,mp-1199399
3.0437,-3.097686813833334,3,"Ca,O,Si",CaSiO3,mp-649676
3.0442,-2.950511368205127,4,"Ag,Al,O,Si",AlSi3AgO8,mp-1228941
3.0445,-2.5755961298039223,4,"Fe,Li,O,Si",Li2Fe2Si3O10,mp-860893
3.0452,-3.159171851819923,5,"Ca,F,Na,O,Si",NaCa2SiO4F,mp-1173770
3.0454,-3.1093121896666682,3,"Ba,O,Si",BaSiO3,mp-12958
3.046,-3.114993621652298,6,"Ca,Cr,Mg,Na,O,Si",NaCaMgCr(SiO3)4,mp-534889
3.0462,-2.850695206106323,6,"Ca,Na,O,S,Si,Zr",Na10Ca2Zr6Si7S5O48,mp-2716097
3.0473,-2.81324889372773,5,"Na,O,S,Sc,Si",Na6Sc4Si3(SO8)3,mp-2716242
3.0473,-3.075336937865229,5,"Na,O,Si,Ta,Ti",Na3TaTi(SiO4)3,mp-2715439
3.0491,-2.227385363571429,2,"O,Si",Si2O5,mp-862998
3.049699999999999,-2.44395081564692,6,"Ga,Na,O,S,Si,Zr",Na5ZrGa3Si3(SO8)3,mp-2716485
3.0499,-2.830304050561857,6,"Hf,Mg,Na,O,S,Si",Na4Hf3MgSi3(SO8)3,mp-2713326
3.050099999999999,-2.9305667555,3,"Mg,O,Si",MgSiO3,mp-1181528
3.0503,-2.917847487339441,6,"Al,Na,O,P,Si,Ta",Na7TaAl3Si3(PO8)3,mp-2715208
3.0506,-2.432999921271747,6,"Hf,Na,O,S,Si,Zn",Na6Hf4Zn4Si3(S3O16)3,mp-2713901
3.051,-3.077280786450955,6,"La,Na,O,P,Si,Ta",Na4LaTa3Si4(PO12)2,mp-2714933
3.0517,-3.300859259374999,5,"Ca,Fe,O,Sc,Si",Ca3ScFe(SiO4)3,mp-1227921
3.052600000000001,-2.809384473125,4,"Mg,O,Si,V",Mg14VSiO16,mp-1034446
3.056,-3.066876938958333,4,"Ca,Co,O,Si",Ca2CoSi2O7,mp-18786
3.056899999999999,-2.378086554806377,6,"Na,O,S,Si,Zn,Zr",Na8ZrZn3Si3(SO8)3,mp-2715211
3.0569,-2.4836875878571423,4,"Fe,Li,O,Si",LiFeSiO4,mp-758603
3.058099999999999,-2.813013006423387,6,"Ge,Na,O,P,Si,Zr",Na2ZrSiGe(PO6)2,mp-2712729
3.0581,-2.779328716472373,6,"In,Na,O,P,Si,Ta",Na3TaInSi2PO12,mp-2715252
3.058199999999999,-2.7232710355185192,5,"Co,In,O,Rb,Si",Rb6In2Co2Si9O26,mp-562801
3.058699999999999,-2.102567933676976,6,"Al,N,O,Pr,Si,Sr",Sr3Pr10Al12Si18(N2O)18,mp-534935
3.0588,-2.87671320112814,4,"Li,Mn,O,Si",Li2Mn3(Si3O8)2,mp-766967
3.058899999999999,-2.105764495103092,6,"Al,N,Nd,O,Si,Sr",Sr3Nd10Al12Si18(N2O)18,mp-720118
3.0593,-3.280708605383333,5,"Fe,Li,O,Sc,Si",Li10Sc9Fe(SiO3)20,mp-1178101
3.0593,-2.5535212671250003,4,"O,Si,Sn,Zn",ZnSi2SnO6,mp-1041482
3.0599,-3.061894185185094,6,"Al,Na,O,P,Si,Ta",Na2Ta3AlSi2(PO6)4,mp-2715584
3.061,-2.813128769047619,5,"Ba,Co,O,Si,Zn",Ba6ZnCo5(SiO4)6,mp-1120751
3.0614,-3.012546228814654,4,"Mn,O,Si,Y",Y2Mn3(SiO4)3,mp-1154524
3.0614,-2.5319719070833333,4,"Fe,Li,O,Si",Li2FeSiO4,mp-752799
3.0614,-2.5630098935000003,4,"O,Si,Sn,Zn",ZnSi2SnO6,mp-1046967
3.0616,-2.893855338637928,4,"Cr,Na,O,Si",NaCr(SiO3)2,mp-19367
3.061699999999999,-3.05644315432885,6,"Na,O,P,Sc,Si,Ta",Na5Sc2Ta2Si3(PO8)3,mp-2714186
3.0617,-2.807019656421569,4,"Nb,O,S,Si",Nb2Si2SO12,mp-2715784
3.0625,-3.026572536499999,5,"Ca,Fe,O,Si,Zn",Ca4Zn3Fe(SiO3)8,mp-1227080
3.0635,-3.175544255833333,4,"I,La,O,Si",La2Si(IO2)2,mp-559088
3.064,-2.664075926558109,6,"Hf,Na,O,S,Si,Zn",Na2Hf3ZnSi2(SO6)4,mp-2712592
3.0641,-2.544304068205128,3,"Li,O,Si",Li2Si4O7,mp-985637
3.064899999999999,-3.53379450205665,5,"Na,O,S,Si,Sm",NaSm9Si6(SO12)2,mp-686543
3.066099999999999,-2.463282419728524,6,"Mg,Na,O,S,Si,Zr",Na4Mg3ZrSiS5O24,mp-2713459
3.0661,-3.385292812738096,4,"Ba,O,Si,Ti",BaTi(SiO3)3,mp-6661
3.0664,-2.586089206294472,5,"Ge,Na,O,Si,Sn",Na4Si3SnGeO12,mp-2716376
3.0675,-2.108755661059321,5,"Al,Ca,H,O,Si",Ca2Al4Si8H14O31,mp-1248247
3.068399999999999,-2.555387092296182,6,"Ga,Na,O,P,Si,Sn",Na3GaSiSn(PO6)2,mp-2715317
3.069,-2.379716222247348,6,"Ga,Na,O,S,Si,Ta",Na10TaGa7Si6(SO8)6,mp-2716450
3.0692,-3.026584082109375,4,"Nb,O,Rb,Si",RbNbSiO5,mp-1219967
3.0701,-3.056256709797593,6,"Mg,Na,O,P,Si,Ta",Na9Mg2Ta10Si9(PO8)9,mp-2713101
3.0701,-2.615739305099268,4,"Cd,Na,O,Si",Na2Cd(SiO3)2,mp-555363
3.071399999999999,-2.485995047996068,6,"Ga,Na,O,S,Si,Y",Na2YGaSi(SO6)2,mp-2713614
3.0736,-2.443895523711102,6,"Na,O,S,Si,Zn,Zr",Na14Zr3Zn5Si6(SO8)6,mp-2714068
3.0736,-2.620781343970589,3,"O,Si,W",Si3(WO6)2,mp-1143551
3.073699999999999,-2.727575414833333,4,"Fe,Li,O,Si",LiFe(SiO3)2,mp-753684
3.0744,-2.684027600194171,5,"La,Na,O,S,Si",Na2La8SiS11O48,mp-2714126
3.0753,-3.106126034551348,6,"Na,O,P,Sc,Si,Ta",Na3ScTa3Si3(PO8)3,mp-2712945
3.075699999999999,-2.842031055804598,6,"Ca,F,Na,O,Si,Zr",Na3Ca3Zr2Si4(O5F)3,mp-705559
3.077000000000001,-3.06620171425,4,"Ca,Mo,O,Si",Ca3Si3(MoO6)2,mp-1170750
3.0776,-0.5398728018750001,3,"H,O,Si",SiH2O,mp-1173298
3.077899999999999,-2.533138231333333,4,"Cr,Li,O,Si",Li3Cr3SiO8,mp-755028
3.0784,-3.059722726456896,5,"Ca,Na,O,Si,Ta",Na9CaTa5(SiO4)9,mp-2715480
3.0787,-2.538409443748564,6,"Hf,Mg,Na,O,S,Si",Na6HfMg3Si2(SO6)4,mp-2712732
3.0787,-2.75310931317773,6,"Ga,Na,O,S,Si,Ta",Na6Ta2Ga2Si5SO24,mp-2713793
3.0789,-2.613795254583334,4,"Cr,Li,O,Si",Li2CrSiO4,mp-752766
3.0794,-2.738097978325015,6,"Al,Na,O,S,Si,Zr",Na4Zr2Al2Si3(SO8)3,mp-2713576
3.0796,-2.390364616666666,4,"Li,Ni,O,Si",Li2SiNiO4,mp-757167
3.080000000000001,-1.391446350352942,5,"Al,N,O,Si,Y",YAl6Si30(N15O)3,mp-677140
3.0801,-2.496012522432266,6,"Al,Na,O,S,Si,Y",Na2Y4Al4SiS11O48,mp-2714273
3.0808,-3.73295124156251,3,"Gd,O,Si",Gd2SiO5,mp-542831
3.0812,-2.762637421408047,4,"Li,Mn,O,Si",Li2Mn2(SiO3)3,mp-849345
3.0814,-2.574403154576375,6,"Ge,Na,O,P,Si,Sn",Na7Si5Sn2Ge2PO24,mp-2714475
3.0818,-2.510166298809525,4,"Fe,Li,O,Si",LiFeSiO4,mp-762644
3.0821,-3.204366553020833,5,"Ca,O,Si,Sn,Ti",Ca2TiSi2SnO10,mp-1227786
3.083,-2.464500772864584,4,"Co,Li,O,Si",Li2CoSiO4,mp-1248621
3.083,-2.319155911289409,6,"Hf,Na,O,S,Si,Zn",Na2Hf4Zn4SiS11O48,mp-2714085
3.0833,-3.048411055179118,5,"Mg,Na,O,Si,Ta",Na9MgTa5(SiO4)9,mp-2715391
3.0835,-3.3844919922619052,4,"Ba,O,Si,Ti",BaTi(SiO3)3,mp-1198599
3.0837,-2.710617702309211,6,"Al,Ge,Na,O,P,Si",Na4AlSi2GePO12,mp-2716223
3.084699999999999,-2.969097216361837,6,"Hf,Na,O,S,Si,Zr",Na6Hf4Zr4Si7S5O48,mp-2713064
3.0848,-2.437715850057471,6,"Na,O,S,Si,Zn,Zr",Na2ZrZnSi(SO6)2,mp-2713663
3.085099999999999,-2.348503398602218,4,"Li,Mn,O,Si",Li6MnSiO6,mp-757260
3.0852,-2.50584825387931,4,"Cs,Fe,O,Si",CsFeSiO4,mp-644325
3.0854,-3.284080261729884,5,"F,Gd,Na,O,Si",Na5Gd4Si4O16F,mp-1192390
3.085499999999999,-3.4146119242051283,4,"O,Si,Sr,Ta",Sr3Ta6(Si2O13)2,mp-17103
3.0866,-2.523404222628204,4,"Fe,Li,O,Si",Li2Fe2Si2O7,mp-759016
3.0869,-2.109219332319587,6,"Al,N,Nd,O,Si,Sr",Sr3Nd10Al12Si18(N2O)18,mp-1260118
3.087,-2.228306848701826,4,"Cs,Ni,O,Si",Cs6Si2NiO8,mp-556265
3.09,-2.743098852772989,6,"Na,O,S,Si,Zn,Zr",Na10Zr6Zn2Si7S5O48,mp-2715930
3.0902,-2.8349636716511943,6,"Na,O,S,Si,Y,Zr",Na5Y3ZrSi3(SO8)3,mp-2716312
3.0903,-3.04488733518319,4,"Mg,Mn,O,Si",MgMn(Si2O5)2,mp-1043525
3.0905,-2.844870474,4,"Co,Mg,O,Si",MgCo(SiO3)2,mp-1041840
3.0906000000000002,-2.911049323289409,5,"Hf,Na,O,S,Si",Na2Hf8Si5S7O48,mp-2716151
3.0915,-2.47698430760273,6,"Al,Ga,Na,O,S,Si",Na6Al2Ga2Si3(SO8)3,mp-2716230
3.0919,-2.623670571875553,6,"Ga,Na,O,S,Si,Zr",Na10Zr4Ga4Si7S5O48,mp-2716014
3.092,-3.031826783226781,6,"Na,O,P,Si,Ta,Y",Na7Y2Ta2Si5PO24,mp-2714543
3.092399999999999,-2.812846452875,5,"Ca,Ga,O,Si,Sn",Ca3Ga2Si(SnO6)2,mp-695070
3.092599999999999,-3.056387502952476,6,"Na,O,S,Si,Ta,Y",Na10Y2Ta6Si11SO48,mp-2716575
3.0934,-2.532890937395833,4,"Cd,Li,O,Si",Li2CdSiO4,mp-557293
3.094,-2.264139281405467,6,"Hf,Na,O,S,Si,Zn",Na10Hf2Zn6Si3(S3O16)3,mp-2714760
3.0944,-2.834331281666667,4,"Cr,Li,O,Si",Li4Cr2Si4O13,mp-759372
3.0944,-2.670455061824713,4,"Li,Mn,O,Si",Li2MnSiO4,mp-768020
3.095199999999999,-2.483235495128204,4,"Fe,Li,O,Si",Li2Fe2Si2O7,mp-752892
3.0954,-2.807952449875,7,"Al,Fe,H,K,Mg,O,Si",KMg2AlFeSi3(HO6)2,mp-1223617
3.0957,-2.349863467513612,6,"Al,In,Na,O,S,Si",Na2AlInSi(SO6)2,mp-2713569
3.0958,-2.577191875523498,6,"Ga,Na,O,P,Si,Sn",Na4GaSi2SnPO12,mp-2715772
3.0965,-3.049342034759817,6,"Al,Na,O,P,Si,Ta",NaTa3AlSiP5O24,mp-2715599
3.0966,-2.981959913158349,6,"Al,Na,O,S,Si,Ta",Na4Ta3AlSi5SO24,mp-2715057
3.0971,-2.754135044376797,4,"Li,Mn,O,Si",Li2Mn2(SiO3)3,mp-849428
3.0984,-2.917750721906887,6,"Na,O,S,Si,Ta,Zn",Na12Ta10Zn2Si15(SO24)3,mp-2715062
3.0995,-2.806884371632124,6,"Na,O,P,Si,Sn,Y",Na7Y2Si3Sn2(PO8)3,mp-2714649
3.099599999999999,-2.6092871381185923,6,"Hf,Mg,Na,O,S,Si",Na6Hf4Mg4Si3(S3O16)3,mp-2713860
3.0997999999999992,-2.602203076661878,6,"Ca,Hf,Na,O,S,Si",Na10Ca6Hf2Si3(S3O16)3,mp-2714880