band_gap,formation_energy_per_atom,nelements,elements,formula,material_id
3.2313,-2.936912286874999,4,"Ca,O,Si,Sn",CaSiSnO5,mp-6809
3.2314,-2.973408460142685,6,"Al,Na,O,P,Si,Ta",Na2TaAlSi(PO6)2,mp-2712599
3.231899999999999,-2.454042240000001,4,"Bi,Li,O,Si",LiSiBiO4,mp-757541
3.2325,-2.557802987708333,4,"Fe,Li,O,Si",Li2FeSiO4,mp-764346
3.2326,-2.8308398640464683,6,"Ge,Hf,Na,O,S,Si",Na14Hf4Si11Ge4SO48,mp-2714598
3.2328,-2.885748201160228,6,"Hf,Na,O,P,Si,Sn",Na2HfSiSn(PO6)2,mp-2712691
3.2329,-2.9355890389000012,4,"Fe,Li,O,Si",Li3Fe(Si2O5)3,mp-757427
3.2333,-2.862029195576713,6,"Ge,Hf,Na,O,P,Si",Na5Hf2Si3Ge2(PO8)3,mp-2714271
3.233399999999999,-3.0361945313961822,6,"La,Na,O,P,Si,Ta",Na6La3TaSi2(PO6)4,mp-2715276
3.2334,-2.667804514696969,4,"Co,Li,O,Si",Li2Co(SiO3)2,mp-758354
3.2335,-2.940868119193965,5,"F,Mg,Na,O,Si",NaMg3Si4O11F,mp-695597
3.234099999999999,-2.46372547521098,6,"Al,Ca,Na,O,S,Si",Na4Ca2Al2SiS5O24,mp-2713422
3.2347,-2.7273257042090693,6,"Al,La,Na,O,S,Si",Na14La4Al4Si7S5O48,mp-2715631
3.2348,-2.7052119141071422,4,"Ba,Ge,O,Si",Ba2Si3Ge5O18,mp-1228626
3.2353,-2.6746825272375263,6,"Ca,Na,O,S,Si,Y",Na14Ca4Y4Si5S7O48,mp-2715853
3.2356,-2.672212679599912,6,"Al,Na,O,S,Si,Zr",Na5ZrAl3Si3(SO8)3,mp-2713407
3.2364,-2.548339753020832,4,"Fe,Li,O,Si",Li2FeSiO4,mp-752853
3.2369,-2.804981874333844,6,"Ga,Na,O,P,Si,Ta",Na3Ta2Ga2SiP5O24,mp-2712937
3.2375,-2.258873952348484,5,"C,Li,O,Sb,Si",LiSiSbCO7,mp-771979
3.237699999999999,-2.8535967968557063,6,"Na,O,P,Si,Sn,Zr",Na3ZrSi2SnPO12,mp-2713309
3.2378,-2.998113200067915,6,"Na,O,P,Si,Ta,Zn",Na6Ta5ZnSi6(PO12)3,mp-2714982
3.2385,-2.609202770769231,4,"Bi,Li,O,Si",Li3Si2BiO7,mp-863427
3.239199999999999,-2.715840736992467,5,"Na,O,S,Sc,Si",Na6Sc8Si3(S3O16)3,mp-2714021
3.2393,-2.7863211675391852,4,"Li,Mn,O,Si",Li2Mn(SiO3)2,mp-774598
3.2396,-2.781964495778465,6,"Ge,Na,O,P,Sc,Si",Na7Sc2Si3Ge2(PO8)3,mp-2714862
3.2401,-2.83666692377451,4,"Co,Li,O,Si",Li2Co(Si2O5)2,mp-757887
3.2403,-3.180523235473265,5,"Al,Li,Na,O,Si",Na2Li5Al7Si29O72,mp-694958
3.2407999999999992,-2.5430534975,4,"Li,Ni,O,Si",Li2Si3Ni2O9,mp-757686
3.2412,-2.422078969499999,4,"Bi,Li,O,Si",Li3SiBiO5,mp-758245
3.2416,-2.540541718958333,4,"Fe,Li,O,Si",Li2FeSiO4,mp-758465
3.241799999999999,-2.674580780100575,6,"Ca,Hf,Na,O,S,Si",Na6Ca4Hf4Si3(S3O16)3,mp-2713995
3.242199999999999,-3.238230593333332,3,"Ba,O,Si",Ba3SiO5,mp-7765
3.2434,-2.827529244649123,4,"Ca,O,Pb,Si",Ca2Si3Pb3O11,mp-1214269
3.2437,-2.443996546770833,4,"Li,Ni,O,Si",Li2SiNiO4,mp-766701
3.2439,-3.047531943518303,6,"Na,O,P,Si,Ta,Y",Na7Y3TaSi3(PO8)3,mp-2714660
3.2442,-2.839284471035714,4,"K,O,Si,Zn",K2ZnSi3O8,mp-1224204
3.244599999999999,-2.779505911577918,6,"In,Na,O,P,Si,Y",Na4YInSi(PO6)2,mp-2714519
3.2451,-2.812436346080986,6,"Ga,Na,O,P,Si,Ta",Na5Ta2Ga2Si3(PO8)3,mp-2714306
3.2463,-2.795560013490938,6,"Ge,Na,O,S,Si,Ta",Na10Ta4Si11Ge4SO48,mp-2716515
3.2469,-2.342501271811593,5,"Be,Fe,O,Si,Te",Be3Fe4Si3TeO12,mp-704630
3.2475,-2.458247506609195,4,"Mn,O,Pb,Si",MnSi6Pb8O21,mp-699587
3.247699999999999,-3.191363566999984,4,"Ca,Cr,O,Si",Ca3Cr2(SiO4)3,mp-6414
3.248199999999999,-2.845783473396062,5,"Na,O,S,Si,Y",Na14Y8Si7S5O48,mp-2715533
3.2486,-2.852082384166666,4,"Ba,O,Si,Zn",BaZn2Si2O7,mp-1190900
3.2497,-2.5048809701692223,6,"Hf,In,Na,O,S,Si",NaHfInSi(SO6)2,mp-2712693
3.2499000000000002,-2.93181058020115,4,"Li,Mn,O,Si",Li2Mn2(Si2O5)3,mp-757647
3.250099999999999,-2.5721423228109863,6,"Ga,Na,O,P,Si,Sn",Na7Ga2Si3Sn2(PO8)3,mp-2714733
3.2503,-2.874199161294472,5,"Ge,Hf,Na,O,Si",Na4HfSi3GeO12,mp-2716509
3.2511,-2.8530542833554122,6,"Hf,Na,O,S,Si,Sn",Na14Hf4Si11Sn4SO48,mp-2714572
3.2511,-2.663368063594926,6,"In,Na,O,P,Si,Ta",Na8TaIn3Si4(PO12)2,mp-2715648
3.2525,-2.702530472694842,6,"Ca,Hf,Na,O,S,Si",Na14Ca5Hf3Si6(SO8)6,mp-2714270
3.2531,-3.034918442291667,4,"Nb,O,Rb,Si",RbNbSiO5,mp-557778
3.2534,-2.9140031433081113,6,"Na,O,S,Si,Ta,Ti",NaTaTiSi2SO12,mp-2715603
3.2560000000000002,-2.881419769567861,6,"Na,O,S,Sc,Si,Zr",Na10Zr4Sc4Si7S5O48,mp-2715961
3.256599999999999,-3.186946105534723,4,"K,O,Si,Ti",K2Ti(Si2O5)3,mp-6763
3.2566,-2.329949241139846,4,"Na,O,Rb,Si",Rb2Na2SiO4,mp-559711
3.2568,-2.6762760790122133,4,"Li,Mn,O,Si",Li2MnSiO4,mp-755842
3.257799999999999,-3.126551824781609,6,"Al,Ca,Fe,Na,O,Si",Na5CaAl5Fe(SiO3)12,mp-720332
3.258,-2.467262046139964,6,"La,Na,O,S,Si,Zn",Na14La4Zn4Si5S7O48,mp-2715941
3.2582,-3.244030833571428,3,"Ca,O,Si",Ca2SiO4,mp-1019563
3.2592,-2.816270650157604,6,"Na,O,S,Si,Sn,Ta",Na10Ta4Si11Sn4SO48,mp-2716493
3.2593,-2.6642944546288323,5,"H,Na,O,Si,Ti",Na2TiSi4H4O13,mp-733509
3.259699999999999,-2.8153399594871793,4,"Fe,Li,O,Si",LiFeSi3O8,mp-758141
3.2599,-3.165014318184525,5,"Ba,O,Si,Sn,Ti",Ba4TiSi12(SnO12)3,mp-1228270
3.2605,-2.932004929990618,6,"Ca,Na,O,P,Si,Zr",Na4CaZrSi(PO6)2,mp-2714488
3.261399999999999,-2.840586992172561,6,"Na,O,S,Si,Ta,Y",Na10Y7TaSi6(SO8)6,mp-2716406
3.2618,-2.601651049740215,6,"Al,Na,O,S,Sc,Si",Na6Sc4Al4Si3(S3O16)3,mp-2713834
3.2622,-2.448347063690476,4,"Bi,Li,O,Si",LiSiBiO4,mp-757159
3.2624,-2.827153374599913,6,"Na,O,S,Sc,Si,Zr",Na5ZrSc3Si3(SO8)3,mp-2713432
3.2626,-2.543055333124999,4,"Mg,O,Si,Zn",Mg6ZnSiO8,mp-1032022
3.2628999999999992,-2.6660977797388012,6,"Ga,Hf,Na,O,S,Si",Na10Hf4Ga4Si7S5O48,mp-2714168
3.2639,-2.477699733809525,4,"Bi,Li,O,Si",LiSiBiO4,mp-756818
3.2645,-2.924964505583332,4,"Cr,Li,O,Si",LiCr(SiO3)2,mp-510529
3.264599999999999,-3.191667626527779,4,"I,La,O,Si",La2Si(IO2)2,mp-1203654
3.265599999999999,-2.9301440346939662,4,"Mg,Na,O,Si",NaMg3(SiO3)4,mp-1221159
3.2664,-2.708222379921181,6,"Al,Na,O,P,Si,Sn",Na3AlSiSn(PO6)2,mp-2715292
3.2698,-2.0328706725,5,"Ba,Ca,N,O,Si",BaCa3Si10(N2O)6,mp-1228049
3.2699,-3.377418933518519,3,"Ca,O,Si",Ca3SiO5,mp-554141
3.2707,-2.7121719491176073,6,"La,Mg,Na,O,S,Si",Na7La3MgSi3(SO8)3,mp-2714286
3.2713,-2.608658264656224,6,"Ga,Na,O,S,Sc,Si",Na14Sc4Ga4Si7S5O48,mp-2715723
3.2718,-2.529264232435896,4,"Fe,Li,O,Si",Li2Fe2Si2O7,mp-757107
3.2723,-2.52245891789855,5,"Be,Fe,O,Si,Te",Be3Fe4Si3TeO12,mp-1134064
3.273199999999999,-2.93637199525,3,"Mg,O,Si",MgSiO3,mp-1182302
3.274,-2.994244540530774,6,"Na,O,P,Si,Ta,Zn",Na3Ta5ZnSi3(PO6)6,mp-2715588
3.2757,-2.348376563888889,4,"Bi,Li,O,Si",Li3Si2Bi3O10,mp-757200
3.276,-0.40360639175189306,5,"C,H,Li,O,Si",LiSi4H27(C3O)3,mp-1200227
3.276099999999999,-2.889984406125,4,"Fe,Mg,O,Si",MgFe(SiO3)2,mp-1196844
3.2764,-2.836302265833334,4,"Co,Li,O,Si",Li2Co(Si2O5)2,mp-757519
3.2777,-0.5609968529901971,7,"Ag,C,F,H,O,S,Si",SiAgH16C7S3(OF)3,mp-1204104
3.2782,-3.388859243518518,3,"Ca,O,Si",Ca3SiO5,mp-558273
3.278299999999999,-2.670347528538338,6,"Ca,La,Na,O,S,Si",Na14Ca4La4Si5S7O48,mp-2713086
3.278799999999999,-3.096448067184771,6,"Na,O,P,Si,Ta,Y",Na5YTa3Si5PO24,mp-2716316
3.2793,-2.729651120333334,4,"Fe,Li,O,Si",LiFe(SiO3)2,mp-777840
3.2800000000000002,-2.473556178141996,6,"Hf,Na,O,S,Si,Zn",Na14Hf3Zn5Si6(SO8)6,mp-2714196
3.2833,-2.653740637083334,5,"Hf,Mg,O,S,Si",Hf3MgSiS5O24,mp-2713002
3.2833,-2.7995524986458333,5,"Ca,Ge,O,Si,Zn",Ca8Zn4Si3Ge5O28,mp-1227205
3.285699999999999,-2.9795697709554663,6,"Al,Na,O,P,Si,Ta",Na3Ta2Al2SiP5O24,mp-2712919
3.286299999999999,-2.910884852311827,4,"Fe,Li,O,Si",Li2Fe2Si8O19,mp-758493
3.287899999999999,-3.059838393690778,5,"Na,O,Si,Ta,Y",Na14Y3Ta5(SiO4)12,mp-2713027
3.2881,-2.397919928397435,4,"Li,Ni,O,Si",Li2Si2Ni2O7,mp-766586
3.288799999999999,-2.559076867708333,4,"Fe,Li,O,Si",Li2FeSiO4,mp-752913
3.2893,-2.7796157531652312,6,"Na,O,S,Si,Zn,Zr",Na6Zr3ZnSi4(SO12)2,mp-2714537
3.2895,-2.198106735737296,6,"Na,O,S,Si,Zn,Zr",Na4ZrZn3SiS5O24,mp-2713161
3.290199999999999,-3.191050216985153,4,"Cs,O,Si,Ti",Cs2Ti(Si2O5)3,mp-559460
3.2902,-2.999140934341468,6,"Na,O,P,Si,Ta,Zn",Na15Ta10Zn2Si15(PO24)3,mp-2716387
3.2907,-2.9667574179968543,6,"Na,O,S,Sc,Si,Ta",Na8Sc3TaSi5SO24,mp-2715633
3.292399999999999,-2.619725003985492,6,"Mg,Na,O,S,Si,Y",Na14Y4Mg4Si5S7O48,mp-2715876
3.2931,-2.746990847786305,6,"Al,Na,O,S,Si,Y",Na14Y4Al4Si7S5O48,mp-2715604
3.2933,-3.062456805105406,6,"Na,O,P,Sc,Si,Ta",Na5Sc3TaSiP5O24,mp-2715823
3.293799999999999,-2.416336819935896,6,"Al,Ca,H,O,Si,Sn",Ca2Al2Si6Sn(H3O11)2,mp-1215091
3.2958,-3.025610904021738,5,"Ba,Ga,Nb,O,Si",Ba3NbGa3(SiO7)2,mp-12881
3.295899999999999,-2.8345776128024083,5,"Ge,Na,O,Si,Zr",Na4ZrSi3GeO12,mp-2716573
3.296,-2.770006113595546,4,"Li,Mn,O,Si",Li2Mn2(SiO3)3,mp-1264218
3.2961,-2.8075888471358983,6,"Ca,Hf,Na,O,S,Si",Na14Ca4Hf4Si7S5O48,mp-2715686
3.2969,-2.365970583354884,5,"C,Na,O,Si,Sn",Na2SiSnCO7,mp-771774
3.2975,-2.5483562825643142,5,"Ca,Na,O,S,Si",Na4Ca2Si(SO6)2,mp-2712933
3.2982,-2.931089537375,4,"Bi,Ca,O,Si",Ca3Si3(BiO6)2,mp-1163927
3.3001,-2.87278921609375,4,"Cr,O,Si,Zn",ZnCr(Si2O5)2,mp-1043538
3.3014,-2.856035180833333,4,"Ba,O,Si,Zn",BaZn2Si2O7,mp-560441
3.3015,-2.654381393070175,4,"Fe,Li,O,Si",Li4Fe2Si3O10,mp-757438
3.3015,-3.13577267641832,5,"Na,O,P,Si,Ta",NaTa4Si3(PO8)3,mp-2714161
3.3019,-2.401794771704612,6,"Na,O,S,Si,Y,Zn",Na10Y4Zn4Si3(S3O16)3,mp-2714835
3.3024,-3.07257267647533,5,"Na,O,Sc,Si,Ta",Na14Sc3Ta5(SiO4)12,mp-2713056
3.3033,-2.158115131215107,5,"Na,O,S,Si,Zn",Na4Zn2Si(SO6)2,mp-2712942
3.305399999999999,-3.025646144342091,5,"Na,O,Si,Ta,Y",Na4YTa(SiO4)3,mp-2716521
3.3054,-3.29867361162037,3,"O,Si,Ti",Ti(SiO3)2,mp-766596
3.3054,-2.81077171821749,6,"Na,O,P,Sc,Si,Sn",Na7Sc2Si3Sn2(PO8)3,mp-2714968
3.3055,-2.891689630689039,6,"Hf,Na,O,P,Si,Sn",Na3HfSi2SnPO12,mp-2715485
3.307299999999999,-2.644052746822916,4,"Fe,Li,O,Si",Li2Fe2(SiO3)3,mp-1268159
3.3073,-2.8834672311897,6,"Hf,Na,O,P,Si,Sn",Na3Hf2SiSn2P5O24,mp-2713087
3.3076,-2.966006351372806,6,"In,Na,O,P,Si,Ta",Na5Ta3InSi5PO24,mp-2716281
3.308299999999999,-2.385894646099314,6,"Al,Na,O,S,Si,Zn",Na14Al4Zn4Si5S7O48,mp-2715848
3.3091,-2.8650259490667933,6,"Al,Na,O,S,Si,Zr",Na14Zr4Al4Si9(SO16)3,mp-2714690
3.309699999999999,-2.647049147289591,6,"Na,O,S,Si,Sn,Ta",NaTaSi2SnSO12,mp-2715528
3.3099,-3.042579305284484,6,"Al,Ca,Fe,Na,O,Si",NaCa3AlFe3(SiO3)8,mp-725593
3.3105,-2.859048764215686,4,"Fe,Li,O,Si",Li2Fe(Si2O5)2,mp-759584
3.311,-2.807214960833332,4,"Fe,Li,O,Si",Li2FeSi3O8,mp-753540
3.3114,-2.648602988324923,6,"Hf,Mg,Na,O,S,Si",Na14Hf3Mg5Si6(SO8)6,mp-2714111
3.312599999999999,-2.8577342233579652,5,"Na,O,Si,Sn,Zr",Na4ZrSi3SnO12,mp-2716539
3.3143000000000002,-2.683958620833683,6,"Ga,Na,O,P,Si,Ta",Na6TaGa3Si2(PO6)4,mp-2715253
3.3146,-2.889040896018013,6,"Mg,Na,O,S,Si,Zr",Na14Mg2Zr6Si9(SO16)3,mp-2714734
3.314799999999999,-3.544126313333334,4,"Be,Gd,O,Si",Gd2Be2SiO7,mp-1212449
3.3157,-2.865351595476191,4,"Cr,Li,O,Si",Li2CrSi3O8,mp-758277
3.3161,-2.816626515600079,6,"Ge,Na,O,P,Si,Ta",Na2TaSi2GePO12,mp-2715133
3.3169,-2.754913644285714,4,"Fe,Mg,O,Si",MgFeSiO4,mp-1192825
3.3198,-2.61505632625,4,"Cr,Li,O,Si",Li3CrSiO5,mp-765411
3.320299999999999,-2.609563095367606,6,"La,Mg,Na,O,S,Si",Na14La4Mg4Si5S7O48,mp-2713040
3.323,-2.576323540596816,4,"Na,O,Si,Zn",Na2Zn2Si2O7,mp-6507
3.3232,-3.257661212051281,4,"Er,O,Pb,Si",Er2Si2PbO8,mp-1226117
3.3244,-2.605867627861933,6,"Hf,Mg,Na,O,S,Si",Na8HfMg3Si3(SO8)3,mp-2714948
3.324499999999999,-3.055946249979517,6,"Na,O,P,Sc,Si,Ta",Na6Sc3TaSi2(PO6)4,mp-2715380
3.3247,-3.294318548961685,7,"Ca,F,Na,O,Si,Ti,Zr",Na4CaZr2TiSi4(O8F)2,mp-1210416
3.325599999999999,-3.018655759729485,6,"Ca,K,Mg,Na,O,Si",KNaCa3Mg10(SiO3)16,mp-1224270
3.326,-3.132927823407316,6,"Na,O,P,Si,Ta,Zr",NaZrTaSi(PO6)2,mp-2715568
3.3266,-3.558764211200981,5,"Ba,F,O,Si,Ti",Ba2Ti2Si2O9F2,mp-557968
3.3272,-2.9241766900444723,6,"Mg,Na,O,S,Si,Zr",Na8MgZr3Si5SO24,mp-2715534
3.3282,-2.732479715123098,6,"Al,Hf,Na,O,S,Si",Na6Hf4Al4Si5S7O48,mp-2716016
3.328299999999999,-2.473257030261814,6,"In,Na,O,S,Si,Zr",NaZrInSi(SO6)2,mp-2712568
3.329399999999999,-2.960679973800172,6,"Fe,K,Li,Na,O,Si",KNa2Li3Fe2(Si2O5)6,mp-16283
3.3306,-2.806327952074104,6,"Na,O,P,Si,Sn,Ta",NaTa2SiSn2P5O24,mp-2715552
3.331399999999999,-3.30585531037037,3,"O,Si,Ti",Ti(SiO3)2,mp-25301
3.3314,-3.059285423818008,5,"Ca,Na,O,Si,Ta",Na9CaTa5(SiO4)9,mp-2715372
3.3314999999999992,-2.794432052532327,4,"Ca,Na,O,Si",Na2CaSiO4,mp-555342
3.3324,-2.645838690946875,6,"La,Na,O,S,Si,Zn",Na7La3ZnSi3(SO8)3,mp-2714316
3.3331,-2.835003212894736,4,"Mg,Mo,O,Si",MgSi4(MoO6)2,mp-2230886
3.333199999999999,-2.766027767261905,4,"Co,Li,O,Si",Li2CoSi3O8,mp-1262735
3.3339,-3.101342801635524,5,"Ca,Na,O,Si,Ta",Na15CaTa11(SiO4)18,mp-2713394
3.3348,-3.057610549327071,6,"Mg,Na,O,P,Si,Ta",Na3MgTa5Si3(PO6)6,mp-2715789
3.3352999999999993,-2.931985140034982,6,"Ag,Al,Br,Na,O,Si",Na3Al3Si3AgBrO12,mp-43068
3.3353,-2.626542585416667,4,"Fe,Li,O,Si",Li2Fe2(SiO3)3,mp-758516
3.3355,-2.739009410625,4,"Be,Bi,O,Si",Be3Si3(BiO6)2,mp-1041202
3.336299999999999,-2.482239865952381,4,"Bi,Li,O,Si",LiSiBiO4,mp-766374
3.3363,-2.67818666085327,6,"Ga,Na,O,P,Si,Ta",Na5TaGa3SiP5O24,mp-2716077
3.3366,-2.760685821705397,5,"Be,Mn,O,S,Si",Mn4Be3Si3SO12,mp-19314
3.3367,-3.07047415702014,5,"Na,O,Si,Ta,Zn",Na15Ta11Zn(SiO4)18,mp-2713534
3.3367,-2.635991705,3,"O,Si,Zn",ZnSiO3,mp-641917
3.3375,-2.885883713921568,4,"Fe,Li,O,Si",Li2Fe(Si2O5)2,mp-772589
3.3375999999999992,-2.5773418947071702,4,"Ge,Na,O,Si",Na4Si3(GeO6)2,mp-2716361
3.3378,-2.853653914925424,6,"Na,O,S,Si,Zn,Zr",Na8Zr3ZnSi5SO24,mp-2715771
3.3379,-2.749415464197455,4,"Li,Mn,O,Si",Li4MnSi2O7,mp-752722
3.338199999999999,-2.307892677802408,6,"Mg,Na,O,S,Si,Zn",Na4MgZnSi(SO6)2,mp-2713107
3.3384,-2.806662367286535,6,"Ca,Hf,Na,O,S,Si",Na4CaHfSi2SO12,mp-2714569
3.3385,-2.5354534542201472,6,"Al,La,Na,O,S,Si",Na2La2Al2SiS5O24,mp-2714376
3.339899999999999,-2.4236016932217073,6,"Al,Ga,Na,O,S,Si",Na10Al4Ga4Si5S7O48,mp-2715110
3.3411,-2.940133872708333,4,"Fe,Li,O,Si",LiFe(Si2O5)2,mp-857353
3.3425000000000002,-2.558070604583333,4,"Fe,Li,O,Si",Li2FeSiO4,mp-758209
3.343499999999999,-2.978636937120669,6,"Ga,Na,O,P,Si,Ta",Na5Ta3GaSi5PO24,mp-2716304
3.3438,-2.868598890814039,6,"Ge,Hf,Na,O,P,Si",Na3HfSi2GePO12,mp-2715497
3.344,-2.575592460138888,4,"Cr,Li,O,Si",Li7Cr3(SiO6)2,mp-752502
3.3443,-2.76664909970675,6,"Hf,Mg,Na,O,S,Si",Na10Hf5Mg3Si6(SO8)6,mp-2716504
3.344699999999999,-2.450973456145833,4,"Li,Ni,O,Si",Li2SiNiO4,mp-756200
3.3461,-2.8876437767732943,6,"Hf,Na,O,P,Si,Sn",Na5Hf2Si3Sn2(PO8)3,mp-2714289
3.3463,-3.131916617875,5,"Ga,Gd,O,Rb,Si",Rb2GdGa(SiO3)4,mp-555485
3.3467000000000002,-2.440647470833333,4,"Li,Ni,O,Si",Li2SiNiO4,mp-861603
3.3467000000000002,-3.007025698555244,6,"La,Na,O,P,Si,Ta",Na8La3TaSi4(PO12)2,mp-2716163
3.3484,-2.5622564702083332,4,"Fe,Li,O,Si",Li2FeSiO4,mp-559518
3.3489,-3.043609692284484,6,"Al,Ca,Fe,Na,O,Si",NaCa3AlFe3(SiO3)8,mp-1221133
3.348999999999999,-2.81504481926404,6,"Ga,Na,O,P,Si,Ta",Na3TaGaSi2PO12,mp-2715284
3.3498,-2.5226898339909383,6,"Ga,Na,O,S,Sc,Si",Na10Sc4Ga4Si5S7O48,mp-2715000
3.350099999999999,-2.689898818387213,4,"Li,Mn,O,Si",Li2MnSiO4,mp-759726
3.3506,-2.704407355743075,6,"Ca,Hf,Na,O,S,Si",Na10Ca4Hf4Si5S7O48,mp-2715085
3.3522,-2.9183559203545153,6,"Al,Na,O,P,Si,Ta",Na6TaAl3Si2(PO6)4,mp-2715341
3.3529,-2.271977640892647,6,"Al,Na,O,S,Si,Zn",Na10Al4Zn4Si3(S3O16)3,mp-2714817
3.3533,-2.762321796327064,4,"Li,Mn,O,Si",Li2Mn(SiO3)2,mp-757169
3.354599999999999,-2.975741527090733,6,"K,Mg,Na,O,Si,Sr",KNaSrMg5(SiO3)8,mp-1223601
3.3548,-3.052345485965399,6,"Mg,Na,O,P,Si,Ta",Na15Mg2Ta10Si15(PO24)3,mp-2716491
3.3563,-3.07353313146523,5,"La,Na,O,Si,Ta",Na6LaTa3(SiO4)6,mp-2715303
3.3567,-2.879059707886419,6,"Hf,Na,O,S,Si,Y",Na4Y2Hf2Si3(SO8)3,mp-2713558
3.3568,-2.449073942708334,4,"Li,Ni,O,Si",Li2SiNiO4,mp-766583
3.3579,-3.178671713036947,6,"Hf,Na,O,P,Si,Ta",NaHfTaSi(PO6)2,mp-2715675
3.3579,-2.84630608602564,4,"Fe,Li,O,Si",LiFeSi3O8,mp-757037
3.3591,-2.854008697814039,6,"Na,O,P,Si,Sn,Zr",Na3ZrSi2SnPO12,mp-2713601
3.3613,-2.714751318833334,4,"Bi,Li,O,Si",LiSi2BiO6,mp-760468
3.3626,-3.142063993529411,4,"Ca,O,Si,V",CaVSi4O11,mp-1196058
3.3631,-3.039064637404449,6,"Na,O,P,Si,Ta,Y",Na8Y3TaSi4(PO12)2,mp-2716169
3.3657,-2.166830664537512,6,"Hf,Na,O,S,Si,Zn",Na6Hf2Zn6SiS11O48,mp-2713712
3.365999999999999,-2.709731162087849,6,"Al,Na,O,P,Si,Sn",Na3AlSiSn(PO6)2,mp-2715388
3.365999999999999,-3.018968334031969,5,"Al,C,Na,O,Si",Na8Al6Si6CO27,mp-39823
3.3673,-3.218951309105447,5,"Ba,Na,O,Si,Ti",BaNa2Ti2(Si2O7)2,mp-561352
3.370399999999999,-2.8557932662745102,4,"Co,Li,O,Si",Li2Co(Si2O5)2,mp-1264368
3.3705,-2.758488272420451,6,"Hf,Mg,Na,O,S,Si",Na14Hf4Mg4Si7S5O48,mp-2715781
3.3716,-2.726982094188413,6,"In,Na,O,S,Si,Zr",Na3Zr3InSi3(SO8)3,mp-2714806
3.3723,-2.9547958025,4,"Ca,O,Si,Sn",CaSi2SnO6,mp-1041529
3.3745000000000003,-2.823160223592634,6,"Ga,Na,O,P,Si,Ta",Na7Ta2Ga2Si5PO24,mp-2714571
3.3746,-0.407108275762711,5,"C,H,O,Sb,Si",Si6Sb2H36(C4O)3,mp-1196398
3.3753,-2.824246248962873,6,"Na,O,P,Si,Sn,Ta",NaTaSiSn(PO6)2,mp-2715612
3.3765,-2.392997503333332,4,"Li,Ni,O,Si",Li2SiNiO4,mp-1648601
3.3773,-3.479348232314525,5,"Ba,Gd,Na,O,Si",Ba3NaGd3(Si3O10)2,mp-1194728
3.3775,-2.219928621110104,5,"Ga,Na,O,S,Si",Na2Ga2Si(SO6)2,mp-2713580
3.3778,-2.545759306379506,6,"Ga,In,Na,O,P,Si",Na4InGaSi(PO6)2,mp-2714556
3.378,-3.296465864673912,5,"Al,N,Nd,O,Si",Nd6Al7Si5N3O25,mp-42036
3.378199999999999,-2.738622015004789,6,"In,Na,O,S,Si,Zr",Na8Zr2In2Si5SO24,mp-2716195
3.3785,-3.026659451965167,6,"Na,O,S,Si,Ta,Y",Na14Y4Ta4Si11SO48,mp-2714481
3.3796,-2.703173294242424,3,"O,Rb,Si",Rb10Si6O17,mp-556390
3.3799,-3.07184876734375,4,"Ca,O,Si,Sn",CaSi4SnO10,mp-1043411
3.38,-2.706687907625,5,"F,K,N,O,Si",K3SiN(OF2)3,mp-6872
3.3817,-3.7274593981395343,3,"La,O,Si",La10(Si2O9)3,mp-531302
3.3817999999999993,-3.142049877188889,4,"K,O,Si,Ti",K2Ti(SiO3)3,mp-556719
3.382399999999999,-2.9398896817000013,4,"Fe,Li,O,Si",Li3Fe(Si2O5)3,mp-765285
3.383399999999999,-2.720644195960005,6,"Al,Na,O,P,Si,Sn",Na4AlSi2SnPO12,mp-2716193
3.3841,-3.133173743978866,6,"Na,O,P,Si,Ta,Zr",NaZr2Ta2SiP5O24,mp-2715704
3.3842,-2.563100713645833,4,"Fe,Li,O,Si",Li2FeSiO4,mp-759575
3.3846,-2.881222008748564,6,"Ca,Na,O,S,Si,Zr",Na6CaZr3Si4(SO12)2,mp-2714323
3.3857,-2.895146693814038,6,"Hf,Na,O,P,Si,Sn",Na3HfSi2SnPO12,mp-2715231
3.3857,-2.82424737622773,5,"Na,O,S,Si,Y",Na6Y4Si3(SO8)3,mp-2716149
3.3857,-2.895098944151615,5,"Hf,Na,O,Si,Sn",Na4HfSi3SnO12,mp-2716570
3.386,-2.803339358205128,5,"Ca,Cl,O,Pb,Si",Ca4Si6Pb6Cl2O21,mp-558268
3.386999999999999,-2.7726913765764083,6,"Al,Na,O,S,Si,Zr",Na10Zr4Al4Si7S5O48,mp-2716099
3.3879,-2.974496529243041,6,"Al,Na,O,P,Si,Ta",Na7Ta2Al2Si5PO24,mp-2714583
3.389999999999999,-3.008486399566794,6,"La,Na,O,S,Si,Ta",Na14La4Ta4Si11SO48,mp-2714405
3.39,-2.841035459859476,6,"La,Na,O,S,Si,Y",Na14La4Y4Si7S5O48,mp-2715750
3.390199999999999,-3.015563113609475,5,"Al,Na,O,Si,Ta",Na14Ta5Al3(SiO4)12,mp-2712974
3.391199999999999,-2.2460805011704252,6,"Ca,Na,O,S,Si,Zn",Na10Ca4Zn4SiS11O48,mp-2713613
3.391299999999999,-2.854799829447422,6,"Hf,La,Na,O,S,Si",Na6La4Hf4Si5S7O48,mp-2715850
3.3918,-2.479247736666668,4,"Bi,Li,O,Si",LiSiBiO4,mp-766196
3.3927,-2.9510684433220202,6,"Ca,Na,O,P,Si,Zr",Na7Ca2Zr2SiP5O24,mp-2715635
3.3949,-2.940600437643677,5,"Fe,Li,Na,O,Si",Na2LiFe(Si2O5)3,mp-6838
3.3961,-2.429000462083333,4,"Li,Ni,O,Si",Li2SiNiO4,mp-1177859
3.3966,-2.07183624310273,5,"Na,O,S,Si,Zn",Na6Zn4SiS5O24,mp-2713930
3.3968,-2.805171915872519,4,"Li,Mn,O,Si",Li2Mn(SiO3)2,mp-753527
3.3979,-2.586446322222222,2,"O,Si",SiO2,mp-673168
3.3986,-2.8068306619145913,6,"H,K,Na,O,Si,Ti",KNaTiSi3(HO5)2,mp-1212364
3.3996999999999993,-2.511029074270832,4,"Co,Li,O,Si",Li2CoSiO4,mp-561743
3.4003,-3.078405545568965,6,"Al,Ca,Fe,Na,O,Si",NaCaAlFe(SiO3)4,mp-1173823
3.4006,-3.092014428541667,4,"Co,O,Si,Sr",Sr2CoSi2O7,mp-1208846
3.4013,-2.837134826573564,5,"Ge,Na,O,Si,Ta",Na3TaSi3GeO12,mp-2715406
3.4013,-2.9590945715488512,6,"Na,O,S,Si,Ta,Zr",NaZrTaSi2SO12,mp-2715547
3.401799999999999,-2.730482914211076,4,"Cs,O,Sb,Si",CsSi2SbO7,mp-581955
3.4018,-2.989112300293103,4,"Mg,Mn,O,Si",MgMn(SiO3)2,mp-1248625
3.4024,-2.904032224981427,5,"Ga,Na,O,Si,Ta",Na14Ta5Ga3(SiO4)12,mp-2712822
3.4029,-2.23677784135273,6,"Mg,Na,O,S,Si,Zn",Na6Mg2Zn2SiS5O24,mp-2713829
3.4037,-2.77313391123346,6,"In,Na,O,S,Si,Ta",Na14Ta4In4Si11SO48,mp-2714364
3.4046,-3.065784415687849,6,"Na,O,P,Si,Ta,Y",Na6Y3TaSi2(PO6)4,mp-2715421
3.4057,-2.485249654047619,4,"Bi,Li,O,Si",LiSiBiO4,mp-863062
3.4062,-2.9587016328066302,6,"Ca,Hf,Na,O,S,Si",Na14Ca2Hf6Si9(SO16)3,mp-2714772
3.4069000000000003,-2.9991197690555653,6,"Ca,H,Li,Mn,O,Si",LiCa2Mn2Si5HO15,mp-1202461